-6.723001268000000152e+01
-6.847916442999999731e+01
-6.891492350000000044e+01
-6.775709795999999585e+01
-6.627563514000000566e+01
-6.819463367000000176e+01
-6.812720727999999326e+01
-6.842448434000000645e+01
-6.960448995999999511e+01
-6.886530731000000571e+01
-6.820304403999999465e+01
-6.651863135000000682e+01
-6.846838977999999543e+01
-6.910181638999999620e+01
-6.811750782999999387e+01
-6.833687736999999629e+01
-6.856518608999999742e+01
-6.854451172999999642e+01
-7.058404812999999933e+01
-6.959237821000000679e+01
-6.953344371000000024e+01
-6.805327076999999747e+01
-6.570365687999999693e+01
-6.871502300000000218e+01
-6.729168482000000040e+01
-6.843159566999999299e+01
-6.842670750999999996e+01
-6.901036888999999519e+01
-6.943725686000000508e+01
-6.737391433999999890e+01
-6.765495925000000454e+01
-6.847380861999999979e+01
-7.049772457000000259e+01
-6.872193977000000586e+01
-6.786960016000000451e+01
-6.879004451999999503e+01
-6.581534311000000059e+01
-6.574603446999999790e+01
