-1.574069999999999914e-01 -1.928020000000000012e-01 3.864159999999999817e-01 -3.565490000000000048e-01 -1.092599999999999960e-01 3.757610000000000117e-01 6.089300000000000268e-02 -1.519419999999999937e-01 -8.477500000000000313e-02 -2.838299999999999851e-02 -1.729860000000000009e-01 5.347629999999999884e-01 -3.658000000000000140e-02 -2.710919999999999996e-01 6.108409999999999673e-01 -2.811710000000000043e-01 -2.452759999999999940e-01 -1.043600000000000083e-02 9.481799999999999951e-02 2.231500000000000150e-02 -7.337200000000000666e-02 2.340029999999999888e-01 -2.239960000000000007e-01 -2.853399999999999825e-01 -2.419169999999999932e-01 2.321670000000000122e-01 -1.404700000000000046e-02 1.511750000000000038e-01 6.201199999999999768e-02 -3.735299999999999732e-02 4.277389999999999803e-01 1.271400000000000030e-01 1.396820000000000006e-01 4.302409999999999846e-01 1.138419999999999987e-01 4.370899999999999785e-02 -1.818899999999999961e-01 -5.030810000000000004e-01 -3.600619999999999932e-01 5.717999999999999992e-03 5.050200000000000244e-01 -3.820819999999999772e-01 3.801000000000000125e-03 -2.167250000000000010e-01 7.325399999999999967e-02 -1.336650000000000060e-01 1.191099999999999937e-01 -2.460150000000000114e-01 -5.343980000000000397e-01 -6.590200000000000224e-02 -3.382200000000000206e-01 -1.573789999999999911e-01 2.940980000000000261e-01 -1.918539999999999968e-01 4.141210000000000169e-01 1.461103000000000041e+00 -1.799600000000000088e-01 2.868269999999999986e-01 -7.837439999999999962e-01 3.908999999999999975e-02
4.876380000000000159e-01 2.697510000000000185e-01 5.805050000000000487e-01 8.603699999999999681e-01 -1.181539999999999951e-01 2.905849999999999822e-01 -1.644809999999999883e-01 -9.681999999999999496e-01 1.111649999999999999e-01 -4.134800000000000281e-02 2.656939999999999857e-01 -1.935810000000000031e-01 1.304138000000000019e+00 -3.790569999999999773e-01 -9.647280000000000300e-01 -9.803199999999999414e-02 6.052870000000000195e-01 -1.036405000000000021e+00 -4.212489999999999846e-01 5.198720000000000008e-01 -2.103250000000000119e-01 1.720100000000000101e-02 -7.837960000000000482e-01 1.516379999999999950e-01 -3.148889999999999745e-01 -4.428799999999999959e-01 2.748940000000000272e-01 -1.520450000000000135e-01 4.900519999999999876e-01 -4.217810000000000170e-01 -3.579519999999999924e-01 9.720699999999999896e-01 -1.512630000000000086e-01 -5.497229999999999617e-01 -4.135579999999999812e-01 4.378179999999999850e-01 2.876509999999999900e-01 1.090299999999999950e-02 -3.037869999999999737e-01 2.730699999999999794e-01 -2.613869999999999805e-01 4.746239999999999903e-01 3.082179999999999920e-01 3.724620000000000153e-01 6.122500000000000164e-02 -8.348300000000000165e-02 -6.248089999999999478e-01 4.618189999999999795e-01 -4.388750000000000151e-01 -8.673060000000000214e-01 -9.994680000000000231e-01 8.789800000000000391e-02 8.340450000000000363e-01 7.687329999999999997e-01 -1.155084000000000000e+00 2.538850000000000273e-01 2.908009999999999762e-01 1.509749999999999981e-01 2.651259999999999728e-01 3.775299999999999767e-01
4.653199999999999698e-02 -6.066200000000000064e-02 9.854499999999999371e-02 1.707720000000000071e-01 -5.786980000000000457e-01 2.208739999999999870e-01 2.103369999999999962e-01 -3.006349999999999856e-01 -2.740909999999999735e-01 -1.558569999999999955e-01 1.813130000000000019e-01 4.384029999999999871e-01 -2.042390000000000039e-01 -6.449129999999999585e-01 2.410360000000000003e-01 -4.410589999999999788e-01 -1.224940000000000057e-01 5.214929999999999843e-01 5.144269999999999676e-01 4.236400000000000166e-01 1.286710000000000076e-01 1.096609999999999946e-01 -1.498680000000000012e-01 -3.545019999999999838e-01 -2.011950000000000127e-01 -7.208799999999999930e-02 2.672010000000000218e-01 -3.472580000000000111e-01 -8.938400000000000512e-02 2.315919999999999923e-01 -3.959329999999999794e-01 7.125460000000000127e-01 -5.209420000000000162e-01 6.389470000000000427e-01 -6.839199999999999446e-02 2.999829999999999997e-01 -3.800939999999999874e-01 -1.860789999999999944e-01 4.902290000000000258e-01 1.673040000000000083e-01 -1.102209999999999995e-01 4.409400000000000125e-02 1.728689999999999949e-01 7.251130000000000075e-01 -3.583709999999999951e-01 -1.572159999999999946e-01 2.114500000000000060e-02 -1.115407000000000037e+00 -3.463499999999999912e-01 -2.912819999999999854e-01 -3.656429999999999958e-01 5.854920000000000124e-01 4.043350000000000000e-01 6.168090000000000517e-01 6.793709999999999471e-01 8.489320000000000199e-01 -6.667220000000000368e-01 -6.665100000000000469e-01 -6.423060000000000436e-01 5.674699999999999883e-02
8.782699999999999951e-01 3.993940000000000268e-01 1.126042999999999905e+00 5.217650000000000343e-01 -7.284000000000000197e-02 1.027400000000000015e-02 8.797580000000000400e-01 -3.170069999999999832e-01 -2.033000000000000085e-02 -1.097372000000000014e+00 2.389189999999999925e-01 2.177099999999999869e-01 1.618797999999999959e+00 8.178199999999999914e-01 -8.764079999999999648e-01 -3.658100000000000240e-02 1.277741999999999933e+00 -1.001605000000000079e+00 1.839129999999999932e-01 -1.069400000000000038e-02 1.899790000000000090e-01 1.976710000000000134e-01 -9.345020000000000548e-01 -1.439469999999999916e-01 -1.141496999999999984e+00 -7.512419999999999654e-01 -1.901229999999999865e-01 9.260030000000000205e-01 3.939110000000000111e-01 -2.610450000000000270e-01 -1.044896999999999965e+00 -3.044970000000000176e-01 -8.802849999999999842e-01 -2.196000000000000035e-02 1.990030000000000132e-01 2.411880000000000135e-01 -7.673290000000000388e-01 -6.539490000000000025e-01 -7.589339999999999975e-01 -9.107309999999999572e-01 -3.734290000000000109e-01 8.307940000000000325e-01 3.173739999999999895e-01 -5.831619999999999582e-01 3.623649999999999927e-01 -3.678549999999999875e-01 8.283000000000000362e-01 -2.768059999999999965e-01 8.547270000000000145e-01 -1.244645999999999919e+00 7.069389999999999841e-01 -7.670499999999999541e-02 7.511579999999999924e-01 -1.793000000000000106e-03 -5.638090000000000046e-01 9.103320000000000300e-01 3.746689999999999743e-01 -3.495409999999999906e-01 -5.706109999999999793e-01 3.513140000000000152e-01
-5.438899999999999846e-01 2.455199999999999882e-01 -3.207180000000000031e-01 -4.803689999999999904e-01 1.846760000000000068e-01 -6.277810000000000334e-01 -2.994870000000000032e-01 2.447360000000000091e-01 3.991850000000000120e-01 -2.032300000000000079e-02 -1.669199999999999851e-02 1.325500000000000012e-01 -2.717209999999999903e-01 1.064659000000000022e+00 -1.604918000000000067e+00 3.697030000000000038e-01 -2.300949999999999940e-01 -8.250570000000000404e-01 8.997950000000000115e-01 6.093699999999999811e-02 1.817390000000000116e-01 -7.796110000000000539e-01 3.258079999999999865e-01 5.834949999999999859e-01 1.986179999999999890e-01 1.345189999999999997e-01 2.671339999999999826e-01 1.404859999999999998e-01 -2.805210000000000203e-01 2.024479999999999891e-01 5.441089999999999538e-01 -1.167310000000000014e-01 4.104960000000000275e-01 5.121599999999999764e-02 -2.570740000000000247e-01 3.134399999999999686e-02 -1.753689999999999971e-01 -1.224149999999999960e-01 1.665000000000000030e-03 1.447400000000000075e-02 3.042340000000000044e-01 6.361980000000000413e-01 1.378030000000000088e-01 3.974599999999999661e-02 -1.129160000000000025e-01 4.766969999999999819e-01 -4.033129999999999771e-01 -2.471839999999999871e-01 -8.746700000000000308e-02 -1.606613999999999987e+00 1.148379000000000039e+00 7.926400000000000112e-02 3.468950000000000089e-01 5.922389999999999599e-01 -4.841999999999999950e-03 -6.592970000000000219e-01 -7.302790000000000115e-01 -2.490860000000000019e-01 7.410240000000000160e-01 -1.180220000000000019e-01
9.989199999999999469e-02 -7.074270000000000280e-01 4.785220000000000029e-01 -2.567940000000000222e-01 1.368959999999999899e-01 1.379890000000000005e-01 -1.173580000000000040e-01 -1.131140000000000062e-01 -2.559250000000000136e-01 9.522400000000000309e-02 -1.389150000000000107e-01 2.001139999999999863e-01 1.391259999999999997e-01 3.597770000000000135e-01 -4.645400000000000224e-02 -2.889030000000000209e-01 6.731599999999999806e-01 -6.738969999999999683e-01 5.404999999999999805e-01 1.620749999999999968e-01 -2.834010000000000140e-01 1.736199999999999966e-01 5.040800000000000142e-02 1.213919999999999999e-01 4.379379999999999939e-01 -1.842119999999999869e-01 2.156079999999999941e-01 2.533099999999999796e-01 6.157939999999999525e-01 -4.647040000000000060e-01 -4.474609999999999976e-01 -5.045700000000000185e-02 1.628269999999999995e-01 6.503000000000000100e-03 3.371060000000000167e-01 -2.601769999999999916e-01 -4.563490000000000046e-01 5.554900000000000115e-02 -6.677859999999999907e-01 -4.383770000000000167e-01 -4.370339999999999780e-01 8.387210000000000498e-01 -6.143809999999999549e-01 1.480839999999999934e-01 -3.592049999999999965e-01 2.417130000000000112e-01 -3.374579999999999802e-01 -1.400569999999999871e-01 4.790929999999999911e-01 -1.223904000000000103e+00 5.337200000000000277e-02 -8.958490000000000064e-01 1.876939999999999997e-01 -1.074729999999999991e-01 8.786599999999999966e-02 7.009950000000000347e-01 2.402440000000000131e-01 9.606879999999999864e-01 -2.350160000000000027e-01 8.102890000000000370e-01
5.112389999999999990e-01 4.837420000000000053e-01 -5.136399999999999855e-01 5.905799999999999939e-01 -1.530489999999999906e-01 -8.374920000000000142e-01 4.222969999999999779e-01 -2.097489999999999910e-01 5.102100000000000524e-01 -4.147350000000000203e-01 3.499650000000000261e-01 -7.956900000000000084e-01 -5.261479999999999491e-01 9.724699999999999456e-01 -4.695429999999999882e-01 1.501679999999999959e-01 -3.034990000000000188e-01 -4.642310000000000048e-01 -4.174160000000000093e-01 1.561155000000000070e+00 -1.246776000000000106e+00 -4.063399999999999790e-01 4.265309999999999935e-01 -1.505100000000000014e-02 -1.605810000000000015e-01 -1.508770000000000111e-01 -2.335599999999999829e-02 1.274409999999999987e-01 2.314799999999999844e-02 -6.529000000000000081e-03 -6.634579999999999922e-01 2.697140000000000093e-01 1.326450000000000129e-01 -1.254300000000000033e-02 -4.266630000000000145e-01 -1.140270000000000034e-01 -4.884000000000000320e-03 -3.479769999999999808e-01 -5.081499999999999906e-02 -5.997399999999999953e-02 -3.903179999999999983e-01 1.539242999999999917e+00 -4.152600000000000041e-02 -2.551249999999999907e-01 -1.060243000000000047e+00 2.544489999999999807e-01 -1.931960000000000066e-01 1.213391000000000108e+00 -1.604746999999999924e+00 -1.787485999999999908e+00 1.450922000000000045e+00 -1.569460000000000022e-01 3.258599999999999830e-01 -2.153760000000000119e-01 4.768569999999999753e-01 -1.410393999999999926e+00 1.465349999999999930e+00 1.936268000000000100e+00 1.215746999999999911e+00 -4.989919999999999911e-01
-2.197169999999999956e-01 1.302719999999999989e-01 -5.422080000000000233e-01 -1.025029999999999969e-01 -4.401450000000000085e-01 5.558279999999999887e-01 -2.942259999999999875e-01 -3.887329999999999952e-01 1.100420000000000009e-01 -9.718679999999999541e-01 1.012847999999999971e+00 4.159820000000000184e-01 5.359969999999999457e-01 1.090509999999999952e-01 3.132170000000000232e-01 3.008210000000000051e-01 -1.327069999999999916e-01 -8.991100000000000481e-02 7.960150000000000281e-01 8.927100000000000035e-01 -1.406679999999999875e-01 -8.613870000000000138e-01 -3.781619999999999981e-01 -1.821889999999999898e-01 5.850929999999999742e-01 -3.384600000000000108e-02 2.636020000000000030e-01 8.397360000000000380e-01 1.254780000000000062e-01 -3.245299999999999851e-01 1.002899999999999972e-02 4.279009999999999758e-01 -2.177640000000000131e-01 8.169899999999999385e-02 -7.898140000000000160e-01 8.050100000000000311e-02 -1.258753999999999929e+00 -2.676859999999999795e-01 -1.380859999999999865e-01 4.851030000000000064e-01 2.059700000000000072e-02 -4.517630000000000257e-01 -1.868360000000000021e-01 -1.478899999999999937e-01 7.661470000000000224e-01 1.954499999999999987e-02 -5.857390000000000096e-01 3.679040000000000088e-01 3.271800000000000264e-01 7.686539999999999484e-01 -3.151600000000000235e-02 -5.915110000000000090e-01 -2.940289999999999848e-01 -2.982909999999999728e-01 -9.863500000000000045e-02 -3.582009999999999916e-01 -2.926899999999999988e-02 6.042189999999999506e-01 3.294389999999999818e-01 -4.270260000000000167e-01
-9.027100000000000402e-02 -2.674670000000000103e-01 -3.165859999999999785e-01 -2.072160000000000113e-01 4.789999999999999987e-03 -3.803830000000000267e-01 -4.766800000000000204e-02 -2.147959999999999869e-01 1.284039999999999904e-01 1.493950000000000000e-01 1.317899999999999905e-01 6.581199999999999550e-02 4.390379999999999838e-01 -3.681889999999999885e-01 -4.225720000000000032e-01 6.449199999999999378e-02 -3.051820000000000088e-01 -2.967190000000000105e-01 1.897459999999999980e-01 -7.744299999999999795e-02 8.607860000000000511e-01 -2.661789999999999989e-01 8.207000000000000406e-02 1.799790000000000001e-01 5.572599999999999776e-02 5.966899999999999982e-02 3.253900000000000126e-01 -8.903500000000000303e-02 1.272719999999999962e-01 1.005599999999999966e-01 -1.072310000000000069e-01 1.142959999999999948e-01 1.662109999999999976e-01 1.001260000000000067e-01 5.878099999999999992e-02 2.283419999999999894e-01 -2.105769999999999864e-01 -2.870759999999999978e-01 -3.543370000000000131e-01 2.515740000000000198e-01 9.068900000000000572e-02 2.701660000000000172e-01 8.515799999999999759e-02 3.663000000000000145e-01 -3.361029999999999851e-01 1.925299999999999928e-02 -2.921199999999999838e-02 -6.712919999999999998e-01 5.606039999999999912e-01 -2.008040000000000103e-01 -1.473430000000000017e-01 -5.263480000000000381e-01 1.512950000000000128e-01 6.286079999999999446e-01 -1.932119999999999949e-01 -4.263109999999999955e-01 2.829099999999999948e-01 -1.773770000000000069e-01 9.895279999999999632e-01 -3.118330000000000268e-01
-3.042500000000000066e-02 6.933100000000000374e-02 4.485939999999999928e-01 -5.865999999999999687e-03 -6.961749999999999883e-01 6.199799999999999756e-01 5.008179999999999854e-01 4.943389999999999729e-01 2.915200000000000014e-01 4.165679999999999938e-01 1.041470000000000035e-01 2.979319999999999746e-01 -5.587010000000000032e-01 4.947230000000000238e-01 1.948969999999999869e-01 3.674499999999999988e-01 2.497910000000000130e-01 2.769530000000000047e-01 3.556779999999999942e-01 1.566700000000000037e-01 1.470899999999999985e-01 -1.195634000000000086e+00 5.661399999999999766e-02 5.573630000000000528e-01 -7.545119999999999605e-01 2.721799999999999914e-02 -2.168069999999999997e-01 -5.600359999999999783e-01 -4.220849999999999880e-01 -3.192829999999999835e-01 1.200849999999999973e-01 8.373730000000000340e-01 -3.778150000000000119e-01 -3.082799999999999985e-01 -8.723400000000000598e-02 -3.472859999999999836e-01 4.542329999999999979e-01 -7.472790000000000266e-01 -2.211329999999999962e-01 7.651800000000000268e-02 1.164069999999999966e-01 -1.041780000000000067e-01 8.009779999999999678e-01 2.192099999999999951e-02 -5.712110000000000243e-01 6.613470000000000182e-01 2.563130000000000130e-01 -1.422410000000000063e-01 -1.362520000000000120e-01 -5.924289999999999834e-01 -1.380750000000000033e-01 1.841569999999999874e-01 -2.187570000000000070e-01 -2.457979999999999887e-01 -9.739599999999999647e-02 4.449700000000000183e-02 2.400450000000000084e-01 -2.907299999999999884e-01 -1.653830000000000022e-01 -3.905460000000000043e-01
1.304224000000000050e+00 6.089139999999999553e-01 9.592629999999999768e-01 4.852170000000000094e-01 -3.780049999999999799e-01 -4.335979999999999834e-01 3.711809999999999832e-01 -6.274180000000000312e-01 1.700440000000000007e-01 9.366609999999999658e-01 9.931060000000000443e-01 2.673300000000000121e-01 -1.420540000000000136e-01 -4.847879999999999967e-01 6.046580000000000288e-01 -2.740070000000000006e-01 -1.181549999999999961e-01 6.482700000000000129e-01 3.333990000000000009e-01 2.979330000000000034e-01 -6.359000000000000069e-03 4.491419999999999857e-01 1.576369999999999993e-01 7.266890000000000294e-01 -1.349747999999999948e+00 -9.557269999999999932e-01 -5.481460000000000221e-01 -5.465830000000000410e-01 1.465569999999999928e-01 -5.130479999999999485e-01 -1.337619999999999920e-01 9.313019999999999632e-01 -2.498289999999999955e-01 -1.217410000000000103e+00 -4.919839999999999769e-01 -2.535259999999999736e-01 1.883249999999999924e-01 1.042199999999999932e-01 -1.196765999999999996e+00 -1.837119999999999864e-01 2.310589999999999866e-01 4.008880000000000221e-01 -6.619909999999999961e-01 -3.050299999999999886e-02 3.687079999999999802e-01 3.790439999999999920e-01 -7.038769999999999749e-01 3.410980000000000123e-01 3.509050000000000225e-01 2.243950000000000111e-01 -8.984330000000000371e-01 -4.821550000000000002e-01 2.104200000000000167e-02 -2.276809999999999945e-01 -1.752180000000000126e-01 3.255719999999999725e-01 -1.488690000000000013e-01 3.685430000000000095e-01 -2.512800000000000034e-01 -1.069299999999999938e-02
9.574100000000000665e-02 4.028329999999999966e-01 5.555639999999999468e-01 -4.702509999999999746e-01 1.977820000000000134e-01 3.939380000000000104e-01 -3.373340000000000227e-01 -2.847540000000000071e-01 -3.705900000000000166e-02 9.506399999999999573e-02 5.199660000000000393e-01 1.492100000000000093e-01 -5.702009999999999579e-01 -7.557509999999999506e-01 1.080789999999999945e-01 -1.824939999999999896e-01 -4.114149999999999752e-01 -3.452069999999999861e-01 -3.406499999999999806e-02 -8.083590000000000497e-01 6.621820000000000483e-01 -2.824789999999999801e-01 3.781630000000000269e-01 4.480649999999999911e-01 -4.175349999999999895e-01 -9.020420000000000105e-01 -3.628080000000000194e-01 3.125990000000000157e-01 3.557890000000000219e-01 -8.479599999999999638e-02 6.182269999999999710e-01 -1.077260000000000023e-01 9.973200000000000121e-02 2.189079999999999915e-01 2.070520000000000138e-01 -3.680769999999999875e-01 3.893550000000000066e-01 -5.355020000000000335e-01 -4.355169999999999875e-01 -1.313449999999999895e-01 1.730849999999999889e-01 -9.371990000000000043e-01 3.003400000000000167e-02 3.542690000000000006e-01 7.406000000000000083e-02 2.620049999999999879e-01 8.420670000000000099e-01 -5.836320000000000396e-01 3.530099999999999905e-02 9.322709999999999608e-01 1.172200000000000047e-01 8.490659999999999874e-01 7.795220000000000482e-01 1.074426000000000103e+00 -4.958480000000000110e-01 -6.994460000000000122e-01 -1.810670000000000057e-01 1.525100000000000067e-02 -6.378040000000000376e-01 -3.471130000000000049e-01
-6.787450000000000427e-01 4.965700000000000114e-01 -4.097049999999999859e-01 -3.909250000000000225e-01 -1.067619999999999958e-01 4.005170000000000119e-01 2.921739999999999893e-01 -2.175870000000000026e-01 1.627170000000000005e-01 -3.382499999999999951e-01 4.967559999999999754e-01 4.312119999999999842e-01 1.946499999999999897e-01 -6.605659999999999865e-01 5.099540000000000184e-01 6.849600000000000133e-02 -2.625890000000000168e-01 -1.584199999999999844e-02 1.664136999999999977e+00 1.314281999999999950e+00 1.051070000000000060e-01 3.445630000000000082e-01 -4.549520000000000231e-01 -6.758899999999999908e-01 4.325559999999999961e-01 -2.597240000000000104e-01 3.628569999999999851e-01 8.093749999999999556e-01 6.280600000000000072e-02 -5.177669999999999773e-01 -1.237179999999999946e-01 1.726060000000000094e-01 -5.050160000000000204e-01 1.210149999999999976e-01 -6.430510000000000392e-01 -2.730879999999999974e-01 -2.072019000000000055e+00 -5.582150000000000167e-01 -4.675549999999999984e-01 -4.610999999999999648e-03 -1.920080000000000120e-01 -2.794039999999999857e-01 3.675809999999999911e-01 2.365669999999999995e-01 1.644500000000000128e-01 -4.212369999999999726e-01 -5.508450000000000291e-01 3.436350000000000238e-01 1.656579999999999997e-01 4.395809999999999995e-01 2.009050000000000002e-01 -1.656680000000000097e-01 -4.605270000000000197e-01 -6.441090000000000426e-01 -4.063740000000000130e-01 -1.932299999999999990e-02 2.424640000000000128e-01 1.413429999999999964e-01 1.166981000000000046e+00 8.645589999999999664e-01
6.858400000000000607e-02 2.936309999999999754e-01 -2.428530000000000133e-01 1.581400000000000028e-01 2.680799999999999850e-02 5.799879999999999480e-01 -1.595499999999999974e-01 3.600000000000000091e-05 2.408329999999999915e-01 2.549290000000000167e-01 3.121999999999999775e-01 6.485760000000000414e-01 1.563029999999999975e-01 8.771700000000000330e-02 2.467239999999999989e-01 -1.451129999999999920e-01 3.291379999999999861e-01 6.246600000000000069e-02 1.857810000000000017e-01 2.971420000000000172e-01 1.586279999999999912e-01 -9.830839999999999579e-01 8.333840000000000137e-01 -5.192210000000000436e-01 1.013349999999999945e-01 -1.378880000000000106e-01 1.083680000000000060e-01 -1.976090000000000069e-01 -1.529610000000000136e-01 3.811000000000000151e-03 -7.497399999999999898e-02 3.835839999999999805e-01 -8.056000000000000660e-03 -6.475699999999999512e-02 -6.000630000000000130e-01 -4.559699999999999864e-02 7.817399999999999349e-02 -2.226700000000000068e-01 -9.653499999999999581e-02 -1.586519999999999875e-01 9.949700000000000211e-02 -7.787600000000000078e-01 -2.607849999999999890e-01 9.688399999999999790e-02 -1.638950000000000129e-01 3.830640000000000156e-01 -2.889769999999999839e-01 -1.081680000000000003e-01 -3.952200000000000157e-02 -9.314179999999999682e-01 1.850710000000000133e-01 -2.986570000000000058e-01 4.507079999999999975e-01 -1.722140000000000060e-01 -2.197949999999999904e-01 -2.227649999999999908e-01 -3.602819999999999911e-01 1.216188000000000047e+00 -6.539840000000000098e-01 2.611169999999999880e-01
-1.323960000000000137e-01 -4.613059999999999938e-01 2.022670000000000023e-01 -5.684129999999999461e-01 4.752830000000000110e-01 -9.064050000000000162e-01 -4.517090000000000272e-01 3.177280000000000104e-01 1.076670000000000016e+00 1.852449999999999930e-01 2.724159999999999915e-01 4.557999999999999829e-01 -5.161700000000000316e-02 -4.309799999999999742e-01 1.804399999999999893e-01 -7.970679999999999987e-01 6.136709999999999665e-01 -2.359489999999999921e-01 -1.235350000000000059e-01 2.371260000000000034e-01 -1.303333999999999993e+00 8.401279999999999859e-01 -2.425289999999999946e-01 -1.447330000000000005e-01 7.421429999999999971e-01 -8.099299999999999555e-02 1.860699999999999854e-02 2.735509999999999886e-01 -2.108730000000000049e-01 -1.943459999999999910e-01 8.850700000000000234e-02 -4.626049999999999884e-01 2.618619999999999837e-01 -6.297999999999999432e-02 1.406469999999999942e-01 -1.497199999999999920e-01 8.220469999999999722e-01 -4.807770000000000099e-01 4.500580000000000136e-01 8.695310000000000539e-01 -1.368099999999999872e-01 4.777489999999999792e-01 -4.248669999999999947e-01 -2.394860000000000044e-01 -1.035916999999999977e+00 -3.821439999999999837e-01 -1.814669999999999894e-01 4.610399999999999915e-02 -4.447980000000000267e-01 -4.455999999999999892e-03 -3.207400000000000251e-01 -1.097647999999999957e+00 -1.505699999999999920e-02 -2.350230000000000097e-01 -1.336610000000000020e-01 1.262230000000000019e-01 8.116790000000000393e-01 8.496869999999999701e-01 7.642449999999999521e-01 5.449319999999999720e-01
-6.888400000000000079e-02 -7.525230000000000530e-01 -1.994699999999999945e-02 -1.856500000000000095e-01 -6.101999999999999785e-03 -9.878510000000000346e-01 1.061400000000000017e-02 -2.115529999999999911e-01 -3.457450000000000245e-01 1.966970000000000107e-01 7.851800000000000446e-02 -4.044329999999999870e-01 -3.209159999999999791e-01 -3.725419999999999843e-01 -5.023969999999999825e-01 -6.205650000000000333e-01 9.592699999999999838e-02 3.097199999999999953e-02 5.080090000000000439e-01 2.189589999999999870e-01 -8.865399999999999670e-02 1.063698000000000032e+00 -1.141200000000000027e-02 3.995400000000000340e-02 4.694650000000000212e-01 5.112659999999999982e-01 2.350520000000000109e-01 7.600800000000000611e-02 -2.318439999999999945e-01 8.084839999999999804e-01 -7.345739999999999492e-01 2.490340000000000054e-01 2.734610000000000096e-01 2.416979999999999962e-01 1.451270000000000060e-01 -1.663900000000000101e-02 -1.546269999999999867e-01 -1.867299999999999863e-02 -8.362530000000000241e-01 2.713110000000000244e-01 -3.473049999999999748e-01 1.215473999999999943e+00 -1.651789999999999925e-01 3.450489999999999946e-01 6.560420000000000140e-01 1.175999999999999962e-03 -1.055330000000000018e-01 7.437000000000000034e-03 1.437789999999999901e-01 2.556390000000000051e-01 -2.436170000000000002e-01 7.466429999999999456e-01 -4.436180000000000123e-01 6.852489999999999970e-01 9.839799999999999935e-02 2.785719999999999863e-01 -9.800000000000000377e-02 -1.577101000000000086e+00 3.230160000000000253e-01 -4.085889999999999800e-01
2.211519999999999875e-01 1.742879999999999985e-01 2.679799999999999960e-01 -7.298120000000000163e-01 6.091299999999999493e-01 3.864940000000000042e-01 2.499309999999999865e-01 1.951680000000000081e-01 -1.648979999999999890e-01 3.359059999999999824e-01 -2.164389999999999925e-01 -1.148199999999999915e-02 2.629389999999999783e-01 -1.125105999999999939e+00 -1.228230000000000016e-01 -1.742859999999999965e-01 -5.771519999999999984e-01 1.467340000000000033e-01 1.110479999999999939e-01 1.007231999999999905e+00 -5.379049999999999665e-01 3.809230000000000116e-01 -7.760169999999999568e-01 -1.452625999999999973e+00 -1.060400000000000058e-02 7.913499999999999701e-02 1.205750000000000016e-01 -1.843670000000000031e-01 -1.489030000000000076e-01 4.650679999999999814e-01 -3.146299999999999791e-02 -6.126789999999999736e-01 -1.665270000000000084e-01 3.026559999999999806e-01 -5.670920000000000405e-01 -2.675449999999999773e-01 -1.009236999999999940e+00 8.745899999999999508e-02 -8.750299999999999745e-02 1.228439999999999949e-01 8.764979999999999993e-01 -3.579700000000000243e-02 1.556869999999999921e-01 4.294299999999999784e-01 -1.865680000000000116e-01 -1.648689999999999878e-01 -1.077010000000000051e-01 -3.887869999999999937e-01 1.381910000000000083e-01 -4.712160000000000237e-01 -2.481019999999999892e-01 -2.534810000000000119e-01 -1.754000000000000004e-01 4.286420000000000230e-01 1.514079999999999870e-01 1.983080000000000120e-01 1.511150999999999911e+00 1.254339999999999899e-01 1.121054999999999913e+00 3.439189999999999747e-01
-3.391290000000000138e-01 -6.321100000000000330e-02 5.275999999999999579e-01 7.505000000000000386e-03 -3.270850000000000146e-01 -9.252770000000000161e-01 2.738929999999999976e-01 4.564000000000000348e-03 -1.478040999999999938e+00 -2.165060000000000040e-01 1.194739999999999969e-01 -1.729120000000000101e-01 -1.207734000000000085e+00 3.756519999999999859e-01 6.297540000000000360e-01 3.664430000000000187e-01 7.678070000000000173e-01 4.948339999999999961e-01 -2.394020000000000037e-01 -2.333199999999999857e-02 2.482900000000000038e-02 8.675859999999999683e-01 2.301829999999999987e-01 5.423259999999999748e-01 2.687269999999999937e-01 -7.881299999999999417e-02 -9.380700000000000149e-02 1.515080000000000038e-01 3.823900000000000216e-02 4.558050000000000157e-01 -1.327300000000000008e-02 -1.092849999999999933e-01 1.064530000000000060e-01 1.592969999999999942e-01 2.052740000000000120e-01 4.910630000000000273e-01 9.203400000000000469e-01 -1.337720000000000020e-01 -1.426952999999999916e+00 -1.570640000000000092e-01 9.093999999999999306e-02 -4.992530000000000023e-01 4.137069999999999914e-01 -1.672160000000000035e-01 1.812408999999999937e+00 -8.289520000000000222e-01 -5.557809999999999695e-01 -4.563729999999999731e-01 3.535399999999999654e-02 -1.439499999999999981e-02 -6.202560000000000295e-01 -7.818920000000000314e-01 -1.410319999999999907e-01 2.602960000000000274e-01 1.323390000000000122e-01 -2.925949999999999940e-01 1.467789999999999928e-01 1.872520000000000018e-01 7.438500000000000667e-02 1.807249999999999968e-01
1.433419999999999972e-01 1.621598000000000095e+00 -6.533189999999999831e-01 1.997559999999999891e-01 -4.082689999999999930e-01 -9.833610000000000406e-01 -1.093609999999999999e-01 7.463870000000000227e-01 4.059329999999999883e-01 -4.164109999999999756e-01 2.231269999999999920e-01 -5.279340000000000144e-01 2.970050000000000190e-01 -5.395999999999999686e-01 5.223870000000000458e-01 4.748620000000000063e-01 1.327039999999999886e-01 9.192879999999999940e-01 -7.015660000000000229e-01 -3.993479999999999808e-01 -7.612349999999999950e-01 -1.757311999999999985e+00 -5.310960000000000125e-01 -5.248359999999999692e-01 1.885809999999999986e-01 -6.946930000000000049e-01 -3.805589999999999806e-01 2.249200000000000088e-01 -5.810750000000000082e-01 3.810979999999999923e-01 1.328920000000000101e-01 -2.377259999999999929e-01 -4.142359999999999931e-01 6.854399999999999382e-02 2.072960000000000080e-01 1.015516000000000085e+00 -3.097920000000000118e-01 3.773290000000000255e-01 -6.389669999999999517e-01 -3.573879999999999835e-01 -1.104579999999999895e+00 1.392009000000000052e+00 -2.125160000000000105e-01 7.087710000000000399e-01 -1.339549999999999907e-01 4.292489999999999917e-01 -6.048959999999999892e-01 2.520899999999999877e-02 7.477500000000000258e-01 7.564419999999999478e-01 -1.222970000000000029e-01 -6.719920000000000337e-01 -4.133660000000000112e-01 1.696500000000000091e-02 2.218710000000000127e-01 -5.026650000000000285e-01 -1.431219999999999992e-01 1.407567000000000013e+00 1.243659999999999988e+00 6.054159999999999542e-01