7.985445853999999954e+00 0.000000000000000000e+00 0.000000000000000000e+00 -3.968732766000000023e+00 7.197024304000000150e+00 0.000000000000000000e+00 6.115551599999999866e-01 -3.541330500000000048e-01 1.068002663799999929e+01
7.975421975999999802e+00 0.000000000000000000e+00 0.000000000000000000e+00 -3.948702787000000214e+00 7.333701999999999721e+00 0.000000000000000000e+00 6.913296199999999780e-01 2.431470940000000081e-01 1.071469623499999990e+01
8.366482168999999303e+00 0.000000000000000000e+00 0.000000000000000000e+00 -4.022678486000000220e+00 7.706625589999999804e+00 0.000000000000000000e+00 4.759211409999999920e-01 2.109721400000000024e-01 1.083312347799999920e+01
8.431059559999999564e+00 0.000000000000000000e+00 0.000000000000000000e+00 -4.053727864999999930e+00 7.766109822999999857e+00 0.000000000000000000e+00 4.795945779999999936e-01 2.126005460000000014e-01 1.091673984600000047e+01
8.669165133999999995e+00 0.000000000000000000e+00 0.000000000000000000e+00 -4.168211127000000182e+00 7.985436233999999800e+00 0.000000000000000000e+00 4.931390370000000023e-01 2.186047000000000129e-01 1.122504470199999993e+01
8.342917678999999254e+00 0.000000000000000000e+00 0.000000000000000000e+00 -4.011348470999999805e+00 7.684919608999999596e+00 0.000000000000000000e+00 4.745806920000000262e-01 2.103779299999999908e-01 1.080261160699999934e+01
8.176136769999999387e+00 0.000000000000000000e+00 0.000000000000000000e+00 -4.141626875000000041e+00 7.305554449999999811e+00 0.000000000000000000e+00 6.493796360000000378e-01 -4.222700599999999749e-02 1.081560200100000024e+01
8.153359474000000162e+00 0.000000000000000000e+00 0.000000000000000000e+00 -4.052185124000000194e+00 7.348359422999999779e+00 0.000000000000000000e+00 6.244146099999999810e-01 -3.615795669999999906e-01 1.090460043899999931e+01
8.300806658000000837e+00 0.000000000000000000e+00 0.000000000000000000e+00 -3.991101120000000169e+00 7.646129844999999925e+00 0.000000000000000000e+00 4.721852380000000071e-01 2.093160440000000067e-01 1.074808523799999982e+01
8.023287527000000807e+00 0.000000000000000000e+00 0.000000000000000000e+00 -3.972401448999999918e+00 7.377716183999999622e+00 0.000000000000000000e+00 6.954787260000000471e-01 2.446063729999999881e-01 1.077900190299999927e+01
8.251731828000000490e+00 0.000000000000000000e+00 0.000000000000000000e+00 -3.967505507999999903e+00 7.600925499999999779e+00 0.000000000000000000e+00 4.693936530000000218e-01 2.080785559999999978e-01 1.068454196100000075e+01
8.271433185999999438e+00 0.000000000000000000e+00 0.000000000000000000e+00 -3.976978095000000213e+00 7.619073030000000024e+00 0.000000000000000000e+00 4.705143500000000256e-01 2.085753519999999916e-01 1.071005175500000028e+01
8.322395682999999877e+00 0.000000000000000000e+00 0.000000000000000000e+00 -4.001481314000000289e+00 7.666016164000000188e+00 0.000000000000000000e+00 4.734133139999999740e-01 2.098604400000000092e-01 1.077603923000000030e+01
8.389234737000000663e+00 0.000000000000000000e+00 0.000000000000000000e+00 -4.033618120999999945e+00 7.727583683999999842e+00 0.000000000000000000e+00 4.772154040000000097e-01 2.115458769999999933e-01 1.086258405300000085e+01
8.336316602000000131e+00 0.000000000000000000e+00 0.000000000000000000e+00 -4.008174613999999636e+00 7.678839152000000112e+00 0.000000000000000000e+00 4.742051950000000238e-01 2.102114750000000087e-01 1.079406437199999935e+01
8.253355541999999545e+00 0.000000000000000000e+00 0.000000000000000000e+00 -3.968286203999999984e+00 7.602421152999999876e+00 0.000000000000000000e+00 4.694860160000000060e-01 2.081195000000000128e-01 1.068664438399999916e+01
8.380953995000000489e+00 0.000000000000000000e+00 0.000000000000000000e+00 -4.029636667000000116e+00 7.719956036000000132e+00 0.000000000000000000e+00 4.767443599999999782e-01 2.113370669999999896e-01 1.085186194799999981e+01
8.168671342999999752e+00 0.000000000000000000e+00 0.000000000000000000e+00 -4.137845257999999582e+00 7.298883929999999687e+00 0.000000000000000000e+00 6.487867029999999646e-01 -4.218844900000000286e-02 1.080572654400000054e+01
8.372065691999999615e+00 0.000000000000000000e+00 0.000000000000000000e+00 -4.025363093000000170e+00 7.711768745999999730e+00 0.000000000000000000e+00 4.762387550000000136e-01 2.111129360000000010e-01 1.084035315899999929e+01
8.345158975000000368e+00 0.000000000000000000e+00 0.000000000000000000e+00 -4.012426106000000381e+00 7.686984136000000412e+00 0.000000000000000000e+00 4.747081870000000037e-01 2.104344469999999967e-01 1.080551369099999981e+01
8.325712306999999868e+00 0.000000000000000000e+00 0.000000000000000000e+00 -4.003075975999999869e+00 7.669071208000000084e+00 0.000000000000000000e+00 4.736019770000000073e-01 2.099440730000000088e-01 1.078033367399999953e+01
8.387710182999999375e+00 0.000000000000000000e+00 0.000000000000000000e+00 -4.032885101999999833e+00 7.726179369999999658e+00 0.000000000000000000e+00 4.771286809999999989e-01 2.115074329999999947e-01 1.086061002299999956e+01
8.336317858999999331e+00 0.000000000000000000e+00 0.000000000000000000e+00 -4.008175218999999956e+00 7.678840310000000002e+00 0.000000000000000000e+00 4.742052660000000142e-01 2.102115069999999919e-01 1.079406600000000083e+01
8.274833588999999989e+00 0.000000000000000000e+00 0.000000000000000000e+00 -3.978613038999999851e+00 7.622205247000000128e+00 0.000000000000000000e+00 4.707077789999999928e-01 2.086610979999999893e-01 1.071445467999999934e+01
8.675610413999999437e+00 0.000000000000000000e+00 0.000000000000000000e+00 -4.171310073999999979e+00 7.991373180000000076e+00 0.000000000000000000e+00 4.935056720000000063e-01 2.187672260000000091e-01 1.123339020599999927e+01
8.299073808999999358e+00 0.000000000000000000e+00 0.000000000000000000e+00 -3.990267950999999869e+00 7.644533662999999812e+00 0.000000000000000000e+00 4.720866659999999881e-01 2.092723479999999969e-01 1.074584150199999932e+01
8.241520726999999269e+00 0.000000000000000000e+00 0.000000000000000000e+00 -4.043695827999999715e+00 7.356066801999999960e+00 0.000000000000000000e+00 4.616676900000000194e-01 -5.455528300000000302e-02 1.078344315999999914e+01
8.418694226999999586e+00 0.000000000000000000e+00 0.000000000000000000e+00 -4.047782503999999726e+00 7.754719731999999865e+00 0.000000000000000000e+00 4.788911849999999970e-01 2.122887380000000046e-01 1.090072891300000002e+01
