9.167619999999999658e-01 7.501579999999999915e-01 1.463132000000000099e+00 4.057850000000000068e-01 6.046740000000000448e-01 -6.578819999999999668e-01 -7.449419999999999931e-01 5.179500000000000076e-02 2.198920000000000041e-01 -1.714064999999999950e+00 -1.005136000000000029e+00 -3.129029999999999867e-01 -1.616694000000000075e+00 5.525459999999999816e-01 4.396539999999999893e-01 -5.579739999999999700e-01 -3.457600000000000118e-01 -1.064800000000000052e-01 1.774326999999999988e+00 -1.942857999999999974e+00 2.852421000000000095e+00 2.528540000000000232e-01 1.798680000000000001e-01 -6.684860000000000246e-01 -9.272529999999999939e-01 -1.707670000000000021e-01 -1.060858000000000079e+00 5.275330000000000297e-01 -8.006699999999999928e-01 -3.224659999999999749e-01 5.494989999999999597e-01 6.057500000000000107e-01 -2.995260000000000145e-01 5.312660000000000160e-01 1.122039999999999982e-01 6.135810000000000430e-01 -1.452299999999999924e+00 -1.867634000000000016e+00 -1.280550999999999995e+00 4.759720000000000062e-01 -1.023550000000000015e-01 -3.063400000000000151e-02 5.202449999999999575e-01 -5.525240000000000151e-01 6.621150000000000091e-01 5.044799999999999979e-02 4.080893999999999799e+00 -1.020194000000000045e+00 4.639320000000000110e-01 -8.917840000000000211e-01 7.698840000000000128e-01 6.819009999999999794e-01 1.451006999999999936e+00 7.283260000000000289e-01 2.514239999999999808e-01 -3.843400000000000150e-01 -1.664312000000000014e+00 -3.887180000000000080e-01 -3.250680000000000236e-01 -3.247129999999999739e-01
1.368581999999999965e+00 -6.921399999999999775e-01 -6.951509999999999634e-01 -1.274237999999999982e+00 -8.175670000000000437e-01 -2.521510000000000140e-01 5.730020000000000113e-01 3.951729999999999965e-01 -5.153809999999999780e-01 1.201632000000000033e+00 -2.690389999999999726e-01 1.006380000000000052e-01 -4.181369999999999809e-01 -7.892390000000000239e-01 2.037370000000000014e-01 3.192809999999999815e-01 -6.887300000000000366e-02 -5.640659999999999563e-01 -7.228729999999999878e-01 2.458970000000000045e-01 -1.085584000000000104e+00 -3.981739999999999724e-01 -1.774580000000000046e-01 -6.320930000000000160e-01 -5.792439999999999811e-01 -6.765269999999999895e-01 1.615719999999999934e-01 -3.016800000000000037e-02 8.662450000000000427e-01 8.203439999999999621e-01 9.382500000000000562e-02 -5.707649999999999668e-01 6.919319999999999915e-01 5.941779999999999839e-01 8.864210000000000145e-01 1.032915999999999945e+00 -4.766690000000000094e-01 -2.738970000000000016e-01 5.867989999999999595e-01 3.561239999999999961e-01 6.897250000000000325e-01 -1.298360000000000070e-01 1.404757000000000033e+00 1.218629999999999991e-01 4.146179999999999866e-01 -6.823529999999999873e-01 3.751990000000000047e-01 2.817200000000000260e-01 -1.281692999999999971e+00 1.029123999999999928e+00 5.374700000000000311e-02 1.634720000000000062e-01 -8.854250000000000176e-01 -6.416509999999999714e-01 -9.391540000000000443e-01 3.063230000000000119e-01 -5.408730000000000482e-01 7.278489999999999682e-01 3.049589999999999801e-01 7.087649999999999784e-01
-1.050828000000000095e+00 -1.075627000000000111e+00 -5.367619999999999614e-01 -1.168247000000000035e+00 -9.912360000000000060e-01 -3.997499999999999665e-02 5.905359999999999498e-01 -8.093369999999999731e-01 1.916970000000000063e-01 9.979310000000000125e-01 1.391583000000000014e+00 2.214419999999999999e-01 -4.777799999999999825e-01 6.104129999999999834e-01 -5.087990000000000013e-01 -1.029059999999999975e-01 6.526200000000000057e-02 -6.499000000000000610e-02 -5.121350000000000069e-01 -6.462560000000000526e-01 5.549389999999999601e-01 1.713689999999999936e-01 2.847500000000000031e-02 -2.692869999999999986e-01 -6.007470000000000310e-01 7.007459999999999800e-01 -3.991210000000000035e-01 3.523000000000000020e-01 -1.433679999999999954e-01 9.535789999999999544e-01 1.074709999999999971e-01 -1.204447000000000045e+00 4.875900000000000234e-01 -8.463650000000000340e-01 -4.051859999999999906e-01 -3.808059999999999778e-01 -2.456010000000000137e-01 -6.085190000000000321e-01 8.875199999999999756e-02 5.817120000000000068e-01 1.550105000000000066e+00 -8.230600000000000416e-02 5.055479999999999974e-01 -6.632320000000000437e-01 -6.927649999999999642e-01 4.855630000000000224e-01 8.077309999999999768e-01 5.240519999999999623e-01 9.464970000000000327e-01 2.088480000000000059e-01 7.075199999999999545e-02 2.001709999999999878e-01 1.067777999999999894e+00 -6.079080000000000039e-01 1.298330000000000040e-01 2.894430000000000058e-01 2.948370000000000157e-01 -6.432000000000000217e-02 -1.731779999999999986e-01 1.950780000000000014e-01
-2.912899999999999934e-01 -4.381050000000000222e-01 -9.230089999999999684e-01 -3.880370000000000208e-01 -1.927359999999999907e-01 6.979100000000000303e-01 3.262669999999999737e-01 7.570240000000000302e-01 2.068460000000000021e-01 2.958410000000000206e-01 1.098210000000000020e-01 1.830720000000000125e-01 -1.650099999999999900e-01 1.232339999999999963e-01 4.763830000000000009e-01 -4.743660000000000099e-01 -3.221649999999999792e-01 7.541750000000000398e-01 -2.537189999999999723e-01 -2.044249999999999956e-01 7.542119999999999935e-01 2.179997999999999880e+00 4.917949999999999822e-01 -1.417362000000000011e+00 -1.427000000000000100e-03 4.820139999999999980e-01 -1.092907000000000073e+00 -6.472430000000000128e-01 2.827109999999999901e-01 -1.918189999999999895e-01 3.725589999999999735e-01 3.038029999999999897e-01 1.370924999999999949e+00 -1.091509999999999980e-01 -8.582349999999999701e-01 -6.466180000000000261e-01 -1.382717999999999892e+00 1.648419999999999885e-01 -4.557789999999999897e-01 3.329980000000000162e-01 -4.546930000000000138e-01 -6.366509999999999669e-01 -6.346119999999999539e-01 -3.604570000000000274e-01 -1.738889999999999880e-01 3.708710000000000062e-01 -4.710400000000000004e-02 5.374750000000000361e-01 2.134000000000000064e-01 -6.701699999999999324e-02 4.672990000000000199e-01 -8.958660000000000512e-01 1.432789999999999897e-01 9.461600000000000565e-02 4.686250000000000138e-01 4.800700000000000106e-02 -1.614269999999999872e-01 6.828779999999999850e-01 3.841100000000000070e-02 1.565479999999999927e-01
-9.515190000000000037e-01 -4.044460000000000277e-01 -6.780059999999999976e-01 -2.350250000000000117e-01 -9.729139999999999455e-01 1.533454000000000095e+00 5.694709999999999495e-01 6.048879999999999812e-01 5.942389999999999617e-01 -3.685629999999999740e-01 -9.998700000000000643e-02 3.587290000000000201e-01 9.788040000000000074e-01 6.670080000000000453e-01 2.250800000000000023e-02 -4.828850000000000087e-01 -8.919799999999999951e-01 -2.499740000000000018e-01 -1.073352000000000084e+00 1.580697000000000019e+00 -3.781039999999999957e-01 4.943199999999999678e-02 -6.490190000000000126e-01 8.831500000000000461e-02 -3.848219999999999974e-01 1.566400000000000084e-02 -2.622860000000000191e-01 -2.313969999999999916e-01 1.456673000000000107e+00 3.753750000000000142e-01 4.535699999999999732e-01 -1.018779999999999963e-01 -3.043879999999999919e-01 9.728290000000000548e-01 -1.088930000000000037e-01 -5.235480000000000134e-01 3.278500000000000164e-02 3.526300000000000268e-02 -1.130270000000000025e-01 3.101619999999999933e-01 7.983299999999999841e-01 2.849740000000000051e-01 -4.839439999999999853e-01 -3.783489999999999909e-01 -7.575530000000000319e-01 -6.476099999999999912e-02 -7.412699999999999845e-01 9.050209999999999644e-01 4.190749999999999753e-01 -2.558250000000000246e-01 -2.537170000000000258e-01 6.371740000000000181e-01 -3.626240000000000019e-01 4.813300000000000217e-02 -1.115021000000000040e+00 5.418840000000000323e-01 1.101800000000000002e-02 9.679879999999999596e-01 -7.332229999999999581e-01 -7.011640000000000095e-01
-3.986939999999999928e-01 2.239559999999999884e-01 -1.627609999999999890e-01 -2.127539999999999987e-01 6.410040000000000182e-01 4.694799999999999668e-02 -9.960849999999999982e-01 4.512909999999999977e-01 8.362789999999999946e-01 -5.712390000000000523e-01 -7.063909999999999911e-01 -3.285319999999999907e-01 -1.931549999999999934e-01 -1.976577000000000028e+00 7.144200000000000550e-01 2.579870000000000219e-01 1.517908999999999953e+00 3.134040000000000159e-01 5.264959999999999640e-01 -5.556029999999999580e-01 1.645583000000000018e+00 -4.566879999999999828e-01 -9.674999999999999573e-03 4.096609999999999974e-01 5.053419999999999579e-01 2.703439999999999732e-01 1.727370000000000017e-01 -2.796390000000000264e-01 -3.945139999999999758e-01 1.001500000000000029e-01 -2.438839999999999897e-01 7.176599999999999646e-02 -2.368099999999999927e-01 6.824470000000000258e-01 2.376919999999999866e-01 -3.947919999999999763e-01 6.760890000000000510e-01 1.981363999999999903e+00 3.085809999999999942e-01 -4.387579999999999814e-01 7.262699999999999712e-02 -6.585469999999999935e-01 6.750059999999999949e-01 2.547349999999999892e-01 4.436699999999999672e-02 -8.020960000000000312e-01 -1.256593999999999989e+00 -1.038856000000000002e+00 4.324330000000000118e-01 -4.738939999999999819e-01 -3.877619999999999956e-01 1.683469999999999966e-01 2.873169999999999891e-01 -1.475130999999999970e+00 8.973839999999999595e-01 2.852190000000000003e-01 -1.493659999999999988e-01 -2.285399999999999932e-01 -9.219760000000000177e-01 2.404280000000000028e-01
-1.671199999999999908e-01 -1.458865999999999996e+00 -6.405349999999999655e-01 -7.961559999999999748e-01 -2.300870000000000137e-01 -5.842399999999999816e-01 -3.008390000000000231e-01 4.488559999999999772e-01 -2.954109999999999792e-01 7.020859999999999879e-01 -4.262329999999999730e-01 -3.587009999999999921e-01 -6.291579999999999950e-01 5.792720000000000091e-01 1.507910000000000084e-01 2.844599999999999906e-02 9.031300000000000439e-02 -3.515730000000000244e-01 8.553299999999999792e-02 -8.272500000000000686e-02 -4.415290000000000048e-01 -8.611929999999999863e-01 1.177569000000000088e+00 4.105579999999999785e-01 -3.149399999999999977e-01 1.632639999999999925e-01 7.472900000000000376e-02 -2.769389999999999907e-01 -1.121582000000000079e+00 8.410000000000000808e-03 4.518530000000000046e-01 1.651934999999999931e+00 1.531629999999999936e-01 -4.135420000000000207e-01 -4.389120000000000243e-01 -5.898099999999999454e-01 5.199479999999999658e-01 -1.083903999999999979e+00 -3.598000000000000070e-03 -4.163839999999999764e-01 -6.366499999999999937e-02 5.454710000000000392e-01 8.363350000000000506e-01 -2.671089999999999853e-01 9.035189999999999610e-01 1.129412000000000083e+00 -2.665540000000000131e-01 -2.272849999999999870e-01 -1.410916000000000059e+00 4.841770000000000240e-01 8.617789999999999617e-01 3.084279999999999800e-01 4.607740000000000169e-01 -4.613650000000000251e-01 9.078950000000000076e-01 5.059120000000000283e-01 -3.805060000000000109e-01 6.172509999999999941e-01 -1.224350000000000022e-01 1.226134999999999975e+00
-5.320409999999999862e-01 1.037506999999999957e+00 8.893600000000000116e-02 4.585239999999999871e-01 -2.976380000000000137e-01 -2.134489999999999998e-01 3.469358999999999860e+00 -1.015525000000000011e+00 -8.367229999999999945e-01 5.818410000000000526e-01 1.673719999999999930e-01 6.893610000000000015e-01 -5.008470000000000422e-01 1.322977999999999987e+00 -7.215650000000000119e-01 4.900600000000000095e-02 -8.318370000000000486e-01 -9.889999999999999486e-03 1.968600000000000072e-01 -8.637449999999999850e-01 -3.073239999999999861e-01 -2.930531999999999915e+00 3.809989999999999766e-01 1.979456000000000104e+00 -1.497269999999999990e-01 2.334019999999999984e-01 6.077050000000000507e-01 -6.596020000000000216e-01 4.956300000000000289e-02 5.066040000000000543e-01 7.527740000000000542e-01 3.726650000000000240e-01 -7.589320000000000510e-01 -4.313520000000000132e-01 -2.394540000000000002e-01 -3.284880000000000022e-01 4.551729999999999943e-01 -1.001117000000000035e+00 -1.074573999999999918e+00 6.501789999999999514e-01 -1.287729999999999986e-01 1.197800999999999894e+00 -4.541450000000000209e-01 2.765874999999999861e+00 4.936780000000000057e-01 2.460313999999999890e+00 -2.591495000000000104e+00 -1.707570000000000032e+00 -3.793540000000000245e-01 -5.891469999999999763e-01 -2.887140000000000262e-01 -1.356991000000000058e+00 -1.658060000000000089e-01 1.574959999999999971e-01 -2.578317000000000192e+00 1.581795000000000062e+00 2.640800000000000092e-02 8.988770000000000371e-01 -1.876180000000000070e-01 4.997840000000000060e-01
-4.600394999999999790e+00 -7.288639999999999564e-01 -3.389410999999999952e+00 9.803699999999999914e-02 7.844870000000000454e-01 3.571010000000000018e-01 -1.756060000000000121e-01 -6.869999999999999718e-02 9.419969999999999732e-01 6.172710000000000141e-01 2.014579999999999982e-01 3.805169999999999941e-01 7.537369999999999903e-01 -3.287419999999999787e-01 -5.482310000000000239e-01 9.655280000000000529e-01 -1.362338000000000049e+00 3.437430000000000208e-01 -2.945599999999999954e-02 5.665050000000000363e-01 1.833924000000000110e+00 3.823190000000000199e-01 1.872300000000000075e-01 -1.226790000000000047e+00 -1.217519999999999991e-01 8.037060000000000315e-01 6.345819999999999794e-01 -6.122809999999999642e-01 -2.775599999999999942e-02 -3.720820000000000238e-01 -2.288400000000000156e-02 1.257098999999999966e+00 6.959959999999999480e-01 -8.118349999999999733e-01 -5.991210000000000147e-01 -2.398160000000000014e-01 -3.719379999999999908e-01 4.394410000000000260e-01 6.932770000000000321e-01 4.773266999999999705e+00 7.232100000000000195e-01 1.651939999999999964e+00 8.101270000000000415e-01 -7.669219999999999926e-01 -5.746259999999999701e-01 1.887010000000000076e-01 -9.387529999999999486e-01 1.384120000000000072e-01 2.716999999999999797e-03 1.451099999999999890e-01 -1.121466000000000074e+00 -1.566365999999999925e+00 1.423270000000000091e-01 -3.040470000000000117e-01 -1.566170000000000062e-01 -6.433609999999999607e-01 3.302419999999999800e-01 -1.225740000000000024e-01 2.139850000000000085e-01 -2.252639999999999920e-01
2.038184999999999913e+00 -1.261444999999999927e+00 -9.724199999999999511e-01 -6.621650000000000036e-01 -4.418549999999999978e-01 1.290769999999999973e-01 -3.758889999999999731e-01 -2.534199999999999994e-02 2.826529999999999876e-01 1.387423999999999991e+00 -5.443059999999999565e-01 1.917560000000000098e-01 -9.470619999999999594e-01 5.302980000000000471e-01 3.764210000000000056e-01 9.931299999999999850e-02 2.513349999999999751e-01 1.465420000000000056e-01 -9.165579999999999838e-01 -1.892000000000000071e-01 -8.548890000000000100e-01 -2.774099999999999899e-01 -2.241460000000000119e-01 -6.769340000000000357e-01 -1.805660000000000043e-01 -8.834659999999999735e-01 -5.831399999999999778e-02 2.456599999999999895e-01 1.159189999999999943e+00 1.650336999999999943e+00 -3.973630000000000217e-01 -4.268899999999999917e-01 3.461940000000000017e-01 6.019170000000000353e-01 8.519309999999999938e-01 8.510520000000000307e-01 -1.815749999999999864e-01 -3.469630000000000214e-01 5.300909999999999789e-01 1.285193999999999948e+00 -5.868299999999999628e-01 -6.384410000000000363e-01 1.385534000000000043e+00 -2.546860000000000235e-01 1.577109999999999901e-01 -1.066005000000000091e+00 7.452630000000000088e-01 -1.642629999999999924e-01 -2.064757000000000176e+00 1.526974000000000053e+00 6.831840000000000135e-01 1.755699999999999969e-02 -6.983099999999999863e-01 -7.722299999999999720e-01 -2.812560000000000060e-01 1.460990000000000066e-01 -1.076945999999999959e+00 2.898220000000000240e-01 6.723489999999999744e-01 -1.305810000000000026e-01
3.852149999999999741e-01 3.884969999999999812e-01 1.044100000000000063e-02 1.553339000000000025e+00 -2.254598999999999798e+00 2.012079999999999980e-01 1.151343000000000005e+00 -2.998919999999999919e-01 -3.243480000000000252e-01 1.737660000000000038e-01 -3.509430000000000049e-01 3.599629999999999774e-01 3.256560000000000010e-01 -1.173379999999999979e-01 3.434400000000000230e-01 9.490969999999999684e-01 -8.257609999999999673e-01 -1.128447999999999896e+00 6.332579999999999876e-01 4.993079999999999741e-01 2.118510000000000115e-01 -2.485080000000000067e-01 -4.624329999999999830e-01 6.626239999999999908e-01 1.622450000000000003e-01 -2.507059999999999844e-01 -7.504889999999999617e-01 -3.619089999999999807e-01 4.745400000000000174e-01 -6.847229999999999706e-01 -4.380109999999999837e-01 2.543659999999999810e-01 -1.919029999999999903e-01 -4.289859999999999784e-01 3.240620000000000167e-01 7.805600000000000316e-01 -4.270599999999999952e-01 -1.766261000000000081e+00 -7.200889999999999791e-01 -5.410110000000000197e-01 -2.677860000000000240e-01 7.845229999999999704e-01 1.767140000000000100e-01 6.838769999999999571e-01 2.035500000000000156e-02 -4.989250000000000074e-01 1.062616999999999923e+00 6.163640000000000230e-01 -1.865717000000000070e+00 1.902223999999999915e+00 9.110620000000000385e-01 1.192963999999999913e+00 6.688509999999999733e-01 -3.368260000000000143e-01 -1.900867000000000084e+00 3.164540000000000131e-01 1.543229999999999880e-01 7.396999999999999929e-03 2.092499999999999916e-02 -9.198880000000000390e-01
1.298900000000000055e-02 1.838579999999999937e-01 7.822679999999999634e-01 2.078059999999999907e-01 -2.431290000000000118e-01 -2.530999999999999917e-02 2.042180000000000106e-01 -5.440399999999999681e-01 6.289100000000000246e-02 9.680569999999999453e-01 1.643850000000000033e-01 6.236869999999999914e-01 -1.084122000000000030e+00 5.007359999999999589e-01 -1.097787000000000068e+00 -2.042499999999999871e-02 -4.569739999999999913e-01 -1.017935000000000034e+00 4.746440000000000103e-01 2.082360000000000044e-01 3.528009999999999757e-01 -4.436199999999999866e-02 -1.194504999999999928e+00 1.376316000000000095e+00 8.586230000000000251e-01 7.027330000000000521e-01 -4.438999999999999890e-02 -4.966740000000000044e-01 -2.021169999999999911e-01 -2.168789999999999885e-01 1.336209999999999898e-01 4.046879999999999922e-01 -6.158550000000000413e-01 -1.404180999999999901e+00 -1.411043999999999965e+00 -4.725650000000000128e-01 5.854999999999999788e-02 -9.679699999999999416e-02 5.661260000000000181e-01 -5.426349999999999785e-01 -6.569369999999999932e-01 3.226749999999999896e-01 1.277919999999999889e-01 1.918096999999999941e+00 -6.235840000000000272e-01 8.001040000000000374e-01 2.395279999999999909e-01 1.674117000000000077e+00 -7.402229999999999643e-01 1.971040000000000014e-01 -9.212869999999999671e-01 7.783379999999999743e-01 -4.489429999999999810e-01 -1.176673000000000080e+00 -6.985470000000000290e-01 3.252539999999999876e-01 1.402710000000000068e-01 4.064269999999999827e-01 4.098660000000000081e-01 3.111110000000000264e-01
1.013667000000000096e+00 1.981350000000000056e-01 -2.544350000000000223e-01 -3.023069999999999924e-01 5.926559999999999606e-01 3.615050000000000208e-01 -6.117399999999999505e-01 -2.505000000000000004e-01 2.492610000000000103e-01 -8.791189999999999838e-01 -2.815630000000000077e-01 2.096310000000000118e-01 3.555840000000000112e-01 3.512839999999999852e-01 3.256809999999999983e-01 8.633659999999999668e-01 -3.171070000000000277e-01 -8.625509999999999566e-01 5.155920000000000503e-01 -9.990759999999999641e-01 -9.431410000000000071e-01 3.057070000000000065e-01 -3.162440000000000251e-01 -6.515309999999999713e-01 1.250670000000000115e-01 -5.432240000000000402e-01 -7.296150000000000135e-01 1.411250000000000004e-01 -2.114949999999999886e-01 -4.511809999999999987e-01 -9.323449999999999793e-01 4.341880000000000184e-01 7.125979999999999537e-01 2.777810000000000001e-01 1.753784000000000010e+00 1.854427000000000048e+00 -5.682770000000000321e-01 -1.190654000000000101e+00 -7.980810000000000404e-01 -3.433979999999999810e-01 2.605129999999999946e-01 5.627039999999999820e-01 -4.855180000000000051e-01 -5.505539999999999878e-01 2.590069999999999872e-01 -5.383250000000000535e-01 5.060999999999999943e-01 2.026340000000000086e-01 -1.412160000000000082e-01 -7.286299999999999999e-01 7.811679999999999735e-01 2.237639999999999907e-01 7.286880000000000024e-01 -5.008580000000000254e-01 5.708769999999999678e-01 5.022550000000000070e-01 -2.930800000000000072e-02 4.097169999999999979e-01 6.144299999999999762e-02 -2.979149999999999854e-01
2.843849999999999989e-01 -4.281079999999999885e-01 1.185173999999999950e+00 -2.474210000000000020e-01 -5.583780000000000410e-01 5.834810000000000274e-01 -7.713489999999999513e-01 -8.921489999999999698e-01 4.531629999999999825e-01 -1.076286000000000076e+00 -1.869379999999999931e-01 1.526589999999999892e-01 1.286453999999999986e+00 -2.270600000000000118e-01 2.509101999999999943e+00 7.929999999999999549e-02 9.196410000000000418e-01 2.184349999999999903e-01 1.354080000000000006e-01 -2.362600000000000117e-02 9.272820000000000507e-01 -8.608599999999999586e-02 -5.893999999999999934e-02 3.463490000000000180e-01 -1.602399999999999936e-01 9.941029999999999589e-01 -1.157823999999999964e+00 8.452410000000000201e-01 -6.365819999999999812e-01 8.713699999999999779e-01 -2.199339999999999906e-01 -1.218720000000000026e+00 -1.213000000000000050e-01 5.618640000000000301e-01 2.298149999999999915e-01 -8.266069999999999807e-01 -6.448120000000000518e-01 -7.807589999999999808e-01 -2.075510000000000133e-01 -4.504210000000000158e-01 1.049655000000000005e+00 -6.206040000000000445e-01 8.924459999999999615e-01 -4.078809999999999936e-01 -6.275249999999999995e-01 -3.423299999999999954e-02 6.030079999999999885e-01 -5.121869999999999479e-01 1.377039999999999931e-01 8.486609999999999987e-01 -4.817640000000000255e-01 -1.197665999999999897e+00 1.295018999999999920e+00 -2.391586999999999907e+00 7.432959999999999567e-01 -5.239160000000000483e-01 -3.750459999999999905e-01 -7.765199999999999880e-02 3.157000000000000084e-03 7.498000000000000498e-02
-7.938499999999999446e-01 -6.373860000000000081e-01 -8.795939999999999870e-01 -9.739309999999999912e-01 -6.336039999999999450e-01 -2.378409999999999969e-01 2.267428999999999917e+00 -4.561529999999999752e-01 -1.537270000000000025e-01 1.378519999999999968e+00 1.148436999999999930e+00 3.189100000000000268e-01 -6.216610000000000191e-01 6.572200000000000264e-01 -1.048934000000000033e+00 -6.294389999999999707e-01 -2.097980000000000123e-01 2.689019999999999744e-01 -3.870759999999999756e-01 -1.455829999999999902e-01 -4.279120000000000146e-01 4.751989999999999825e-01 -1.660669999999999924e-01 -6.556579999999999631e-01 -6.115810000000000413e-01 1.747699999999999948e-02 2.061890000000000112e-01 3.151899999999999841e-02 2.535959999999999881e-01 3.877970000000000028e-01 -3.790199999999999819e-02 -8.570630000000000193e-01 7.719599999999999795e-01 -7.919260000000000188e-01 -6.077099999999999863e-02 7.643899999999999306e-02 1.042779999999999957e-01 -7.940329999999999888e-01 1.427470000000000128e-01 5.878299999999999637e-01 7.977379999999999471e-01 2.103079999999999949e-01 -1.856649999999999967e-01 -4.564960000000000129e-01 -4.109829999999999872e-01 7.492280000000000051e-01 7.134519999999999751e-01 9.552779999999999605e-01 7.655530000000000390e-01 -2.435140000000000082e-01 4.146000000000000379e-03 2.097999999999999865e-02 1.130322000000000049e+00 -5.024659999999999682e-01 -1.203356000000000092e+00 3.552429999999999755e-01 7.034740000000000437e-01 -1.441469999999999974e-01 -4.130159999999999942e-01 2.709659999999999846e-01
1.291269999999999918e-01 3.399389999999999912e-01 3.212530000000000108e-01 1.193818000000000046e+00 -2.016595000000000137e+00 -1.204419999999999935e-01 1.251625999999999905e+00 -4.478630000000000111e-01 -3.334429999999999894e-01 1.108017000000000030e+00 3.150919999999999832e-01 6.314229999999999565e-01 -1.964529999999999887e-01 6.850000000000000533e-02 -6.483500000000000374e-02 4.239410000000000123e-01 -7.189280000000000115e-01 -1.013287999999999967e+00 5.099540000000000184e-01 6.830000000000000515e-01 3.819080000000000252e-01 -1.828790000000000138e-01 -8.788629999999999498e-01 1.131181999999999910e+00 5.747919999999999696e-01 1.234740000000000004e-01 -3.078219999999999845e-01 -5.093130000000000157e-01 3.514249999999999874e-01 -5.377410000000000245e-01 -1.466510000000000036e-01 3.311490000000000267e-01 -4.673619999999999997e-01 -1.386552999999999924e+00 -1.106089000000000100e+00 -2.430609999999999993e-01 -1.481300000000000117e-01 -1.046394000000000046e+00 1.400000000000000029e-02 -5.661009999999999653e-01 -6.166129999999999667e-01 7.376719999999999944e-01 2.705420000000000047e-01 1.453111000000000042e+00 -3.301529999999999743e-01 -3.487400000000000222e-02 8.136949999999999461e-01 8.663689999999999447e-01 -1.682312000000000030e+00 1.660660000000000025e+00 2.065649999999999986e-01 1.027530999999999972e+00 1.063049999999999967e-01 -9.656569999999999876e-01 -1.941356000000000082e+00 2.958450000000000246e-01 2.694079999999999808e-01 3.052759999999999918e-01 2.891509999999999914e-01 -1.759749999999999925e-01
8.238290000000000335e-01 1.548529999999999907e-01 -2.550769999999999982e-01 -9.156410000000000382e-01 8.074040000000000106e-01 -2.045130000000000003e-01 -6.710110000000000241e-01 -2.098589999999999900e-01 3.204600000000000226e-01 -1.142200000000000104e+00 1.615179999999999949e-01 3.688460000000000072e-01 2.940999999999999864e-02 7.727810000000000512e-01 2.805739999999999901e-01 4.660190000000000166e-01 4.952179999999999915e-01 -9.854300000000000559e-02 -2.449209999999999998e-01 -4.864899999999999780e-02 2.466359999999999941e-01 6.622670000000000501e-01 -4.499440000000000106e-01 -1.296929999999999916e+00 4.234040000000000026e-01 -4.259569999999999745e-01 -4.300930000000000031e-01 3.213559999999999750e-01 -6.330789999999999473e-01 -2.655009999999999870e-01 -9.806289999999999729e-01 6.302360000000000184e-01 1.082554000000000016e+00 9.125029999999999530e-01 2.821009999999999907e-01 9.990200000000000469e-02 -4.505370000000000208e-01 -6.471740000000000270e-01 -4.291300000000000114e-01 -3.662199999999999900e-01 1.232639999999999986e-01 6.542480000000000517e-01 -1.545229999999999937e-01 -9.219249999999999945e-01 1.833079999999999987e-01 -4.682720000000000216e-01 -5.423729999999999940e-01 -5.977419999999999956e-01 1.049680000000000057e-01 -1.050721999999999934e+00 6.393410000000000482e-01 -1.427609999999999990e-01 6.850169999999999870e-01 -7.849599999999999911e-01 1.129785999999999957e+00 5.954859999999999598e-01 1.298690000000000122e-01 6.631730000000000125e-01 2.218040000000000012e-01 3.567509999999999848e-01
-6.126519999999999744e-01 -1.395742999999999956e+00 -9.659450000000000536e-01 -1.094549999999999967e-01 1.838970000000000049e-01 -1.669980000000000075e-01 -8.016500000000000015e-02 1.568224999999999980e+00 -5.727619999999999933e-01 2.303739999999999954e-01 5.911000000000000282e-02 -3.004279999999999728e-01 -2.390480000000000105e-01 5.129829999999999668e-01 -7.619700000000000084e-02 -4.318020000000000191e-01 1.490620000000000001e-01 -7.548920000000000075e-01 3.407680000000000153e-01 4.413999999999999868e-02 -9.425000000000000044e-01 3.248750000000000249e-01 1.164690000000000031e-01 -5.690699999999999925e-02 -1.740829999999999878e-01 9.548800000000000343e-02 3.977669999999999817e-01 -7.957359999999999989e-01 -6.482099999999999529e-01 4.308069999999999955e-01 3.981750000000000012e-01 1.484517000000000087e+00 5.499380000000000379e-01 -2.270639999999999881e-01 -4.999819999999999820e-01 -5.086289999999999978e-01 1.306200000000000139e-01 -8.156900000000000261e-01 2.913390000000000146e-01 -5.450800000000000090e-02 -2.055619999999999947e-01 5.006059999999999954e-01 8.731609999999999649e-01 -3.671699999999999964e-02 4.145630000000000148e-01 -9.711200000000000387e-02 8.662799999999999667e-02 6.764409999999999590e-01 -1.245033000000000056e+00 6.476960000000000495e-01 5.125589999999999868e-01 2.885889999999999844e-01 -1.097899999999999987e-01 -3.992209999999999925e-01 1.125212000000000101e+00 8.601400000000000157e-01 1.334460000000000091e-01 3.548850000000000060e-01 -2.096661000000000108e+00 8.370130000000000070e-01
7.410989999999999522e-01 -1.106940000000000007e-01 1.498312000000000088e+00 2.567889999999999895e-01 -3.481819999999999915e-01 8.861419999999999852e-01 -6.748450000000000282e-01 -5.655390000000000139e-01 2.728479999999999794e-01 -1.019648000000000110e+00 -9.105349999999999833e-01 5.882119999999999571e-01 7.805109999999999548e-01 4.791200000000000320e-02 1.764086000000000043e+00 2.139500000000000082e-02 1.609224999999999905e+00 8.977530000000000232e-01 2.892170000000000019e-01 2.869950000000000001e-01 5.918980000000000352e-01 -5.687500000000000194e-02 -3.913719999999999977e-01 6.764949999999999575e-01 2.880980000000000207e-01 1.328278000000000070e+00 -1.369450999999999974e+00 6.144920000000000382e-01 -9.398910000000000320e-01 -2.801390000000000269e-01 -3.811039999999999983e-01 -1.145872999999999919e+00 -4.186000000000000276e-01 7.732560000000000544e-01 3.249889999999999723e-01 -7.948640000000000150e-01 -7.153230000000000421e-01 -7.064129999999999576e-01 -4.432470000000000021e-01 -6.526999999999999469e-01 3.385279999999999956e-01 -3.090609999999999746e-01 7.058980000000000254e-01 8.406600000000000183e-02 -3.595659999999999967e-01 -1.141009999999999941e-01 -3.426900000000000085e-02 -5.657889999999999864e-01 -6.454410000000000425e-01 1.239956000000000058e+00 -6.915149999999999908e-01 -8.534810000000000452e-01 1.018129000000000062e+00 -1.548856000000000011e+00 6.990009999999999835e-01 -7.574229999999999574e-01 -4.614570000000000061e-01 -5.623600000000000126e-02 -3.678870000000000196e-01 6.680099999999999927e-02