-1.041601398100000040e+02
-1.053522741000000025e+02
-9.928135054000000537e+01
-1.029563344000000029e+02
-9.815295901999999728e+01
-1.034000480899999985e+02
-1.056119551500000000e+02
-1.027696791300000001e+02
-1.014890307600000057e+02
-1.015871313600000008e+02
-9.963651516999999558e+01
-1.022423204199999986e+02
-1.021145525999999961e+02
-1.024665633399999933e+02
-1.026406639199999944e+02
-1.025045818800000035e+02
-1.015041025099999956e+02
-1.042584941899999933e+02
-1.061874803900000046e+02
-1.021564588399999991e+02
-1.024113632600000017e+02
-1.025824531800000017e+02
-1.035171407600000038e+02
-1.047489836999999966e+02
-1.030557648500000028e+02
-1.032802965000000057e+02
-1.040663267500000018e+02
-1.057868884899999955e+02
-1.002505472299999951e+02
-1.030000836300000060e+02
-1.058151462600000059e+02
-1.028680270600000028e+02
-1.027092429700000054e+02
-1.031575984499999947e+02
-1.031199892399999953e+02
-1.031239235200000053e+02
-1.017210436600000065e+02
-1.025947421300000002e+02
-1.039578075200000029e+02
-9.761216955999999811e+01
-1.031318897200000038e+02
-1.035710624700000011e+02
-9.945901607999999783e+01
-1.053308962299999934e+02
-1.043327393999999941e+02
-1.025899513899999960e+02
-9.703564342999999326e+01
-1.014447224099999971e+02
-1.021718800900000019e+02
-1.046545562400000051e+02
-9.767883663000000638e+01
-1.016590750900000018e+02
-1.008791089799999980e+02
-1.017706017299999957e+02
-1.015600616600000023e+02
-1.023565060800000026e+02
-1.013060682800000052e+02
-1.051993805200000054e+02
-1.002539899100000014e+02
-1.038427355500000004e+02
-1.043479507800000050e+02
-1.015450401699999929e+02
-1.068890119299999952e+02
-1.007750037099999929e+02
-1.012102161300000063e+02
-1.006994137300000034e+02
-1.027972206799999952e+02
-1.023430292799999961e+02
-9.844066463000000056e+01
-1.006724053500000053e+02
-1.066541274899999934e+02
-1.063765379000000024e+02
-1.024275341000000026e+02
-1.034948339999999973e+02
-1.047710255799999999e+02
-1.046732116700000006e+02
-1.046548426899999953e+02
-1.028734141700000038e+02
-1.023746253700000040e+02
-1.018896059799999989e+02
-1.060505049000000071e+02
-1.004805395000000061e+02
-1.011510018900000034e+02
-1.022916726499999953e+02
-1.022615475000000060e+02
-1.017773973700000028e+02
-1.046809212099999939e+02
-1.025013833000000005e+02
-1.014365099000000043e+02
-1.046279623100000009e+02
-1.028955707899999936e+02
-1.046409383499999990e+02
-1.021550239599999941e+02
-9.901696423999999297e+01
-1.030842870099999971e+02
-9.833810868999999855e+01
-1.033110619299999939e+02
-1.040614049600000044e+02
-1.023409823799999998e+02
-1.047354216399999984e+02
