7.641139683999999654e+00 0.000000000000000000e+00 0.000000000000000000e+00 -4.355601249000000230e+00 7.544123192999999894e+00 0.000000000000000000e+00 0.000000000000000000e+00 0.000000000000000000e+00 2.000000000000000000e+01
8.078113250999999551e+00 0.000000000000000000e+00 0.000000000000000000e+00 -3.964618900000000057e+00 6.866921851999999937e+00 0.000000000000000000e+00 0.000000000000000000e+00 0.000000000000000000e+00 2.000000000000000000e+01
9.119444150999999721e+00 0.000000000000000000e+00 0.000000000000000000e+00 -3.962525713999999866e+00 6.863296347000000353e+00 0.000000000000000000e+00 0.000000000000000000e+00 0.000000000000000000e+00 2.000000000000000000e+01
