-6.862999077000000625e+01
-6.951947696000000576e+01
-6.756510783999999603e+01
