-1.146093000000000028e+00 -8.301239999999999730e-01 -1.244888999999999912e+00 -9.426569999999999672e-01 -8.006050000000000111e-01 3.795990000000000197e-01 4.819860000000000255e-01 4.901900000000000007e-02 -1.612770000000000037e+00 5.482040000000000246e-01 -3.379759999999999986e-01 -8.756009999999999627e-01 9.729449999999999488e-01 -2.357577000000000034e+00 8.281049999999999800e-01 -8.222120000000000539e-01 1.116073000000000093e+00 6.157270000000000243e-01 6.092899999999999705e-02 -3.365560000000000218e-01 5.060320000000000373e-01 6.295730000000000492e-01 4.438219999999999943e-01 9.721980000000000066e-01 2.806969999999999743e-01 5.316170000000000062e-01 1.151561999999999975e+00 6.592599999999999572e-01 4.746999999999999831e-02 3.809150000000000036e-01 2.209699999999999998e-01 5.778309999999999835e-01 5.015610000000000346e-01 -2.497379999999999878e-01 1.779360000000000108e-01 -3.245839999999999836e-01 -1.714999999999999945e-03 2.320500000000000063e-01 1.639186000000000032e+00 1.607500000000000040e-01 5.659189999999999499e-01 -8.512870000000000159e-01 -4.903480000000000061e-01 -4.171909999999999785e-01 -2.074694000000000038e+00 -1.022882999999999987e+00 2.285449999999999982e-01 -3.063540000000000152e-01 -1.016080000000000039e-01 9.045570000000000555e-01 1.262510000000000021e+00 -1.740899999999999948e-01 -4.465379999999999905e-01 -1.088979999999999948e-01 6.609399999999999720e-01 5.126100000000000101e-02 -1.088133000000000017e+00 2.750889999999999724e-01 6.004660000000000553e-01 2.498140000000000083e-01
1.650981999999999950e+00 4.627249999999999974e-01 -4.457289999999999863e-01 5.686670000000000336e-01 8.175229999999999997e-01 -3.617000000000000076e-02 -1.776078999999999963e+00 8.243549999999999489e-01 -6.094610000000000305e-01 -1.371099999999999923e-02 2.405220000000000136e-01 -6.807760000000000478e-01 -5.460129999999999706e-01 7.910500000000000309e-01 1.477150000000000130e-01 2.476549999999999863e-01 -1.461487999999999898e+00 -8.192070000000000185e-01 4.066330000000000222e-01 1.165127999999999941e+00 -3.921270000000000033e-01 -5.410190000000000277e-01 -5.898679999999999479e-01 2.528759999999999897e-01 1.580779999999999963e-01 -6.614550000000000152e-01 -1.106457000000000024e+00 -6.331919999999999771e-01 -2.540689999999999893e-01 -7.968999999999999695e-02 -1.967460000000000042e-01 4.579139999999999877e-01 9.554479999999999640e-01 8.184000000000000302e-03 -6.444039999999999768e-01 1.935040000000000093e-01 8.171000000000000485e-01 -8.537379999999999969e-01 9.237299999999999678e-02 -1.645600000000000118e-01 1.243710000000000093e+00 3.277700000000000058e-01 -1.888390000000000069e-01 -1.037843000000000071e+00 -2.836369999999999725e-01 5.898699999999999777e-02 -5.213309999999999889e-01 -2.323429999999999940e-01 1.111919999999999992e-01 -7.699430000000000440e-01 2.858040000000000025e-01 -3.377999999999999926e-03 7.160109999999999530e-01 2.159952999999999790e+00 -3.310540000000000149e-01 -1.061927999999999983e+00 2.195099999999999829e-02 3.671119999999999939e-01 1.137127999999999917e+00 2.482020000000000060e-01
2.492379999999999873e-01 -4.013760000000000105e-01 1.034999999999999948e-01 -3.541449999999999876e-01 1.160749999999999976e-01 -2.084679999999999866e-01 -4.571979999999999933e-01 -1.993640000000000134e-01 -1.803204999999999947e+00 8.125780000000000225e-01 3.952459999999999862e-01 -6.801709999999999701e-01 2.309299999999999894e-02 1.136920000000000014e-01 -1.158030000000000032e-01 -1.090060000000000057e-01 -2.210099999999999912e-02 4.097330000000000139e-01 -9.023020000000000485e-01 2.664730000000000154e-01 -1.538710000000000078e-01 -5.017110000000000181e-01 2.867700000000000249e-01 6.231879999999999642e-01 3.950199999999999823e-01 -5.132550000000000168e-01 -2.448699999999999835e-02 -9.618640000000000523e-01 1.095676000000000094e+00 2.457689999999999875e-01 -2.069809999999999983e-01 6.251830000000000442e-01 4.639840000000000075e-01 -1.116079999999999989e-01 -6.131360000000000143e-01 9.385219999999999674e-01 9.135940000000000172e-01 -2.608280000000000043e-01 8.977599999999999469e-02 4.422059999999999880e-01 -5.588940000000000019e-01 1.789760000000000018e+00 4.202540000000000164e-01 4.688829999999999942e-01 -1.533835000000000059e+00 -4.397699999999999942e-01 -3.474280000000000146e-01 -7.142140000000000155e-01 4.785650000000000182e-01 -1.622339999999999893e-01 6.452160000000000117e-01 -6.810779999999999612e-01 1.671479999999999910e-01 1.074159999999999976e-01 -2.887140000000000262e-01 -3.749999999999999861e-02 1.656680000000000097e-01 1.279830000000000023e+00 -4.190329999999999888e-01 -3.484769999999999812e-01
