1.137999999999999949e-02 2.330080000000000151e+00 1.577769999999999895e+00 -1.951969999999999983e+00 5.838829999999999742e+00 1.579499999999999904e+00 4.048860000000000348e+00 2.317899999999999849e+00 1.569050000000000056e+00 2.082370000000000054e+00 5.842579999999999885e+00 1.576710000000000056e+00 7.968410000000000437e+00 -5.242999999999999744e-02 5.772960000000000313e+00 6.003459999999999575e+00 3.470530000000000115e+00 5.768779999999999575e+00 3.944789999999999797e+00 -5.360999999999999793e-02 5.772890000000000299e+00 1.975519999999999943e+00 3.466110000000000024e+00 5.772439999999999571e+00 2.037710000000000132e+00 1.173650000000000082e+00 2.631200000000000205e-01 6.241000000000000020e-02 4.690360000000000085e+00 2.514100000000000223e-01 6.056400000000000006e+00 1.168239999999999945e+00 2.536700000000000066e-01 4.096260000000000012e+00 4.687210000000000321e+00 2.594400000000000039e-01 -3.729999999999999982e-02 2.311360000000000081e+00 4.086669999999999803e+00 -2.005310000000000148e+00 5.830829999999999735e+00 4.087040000000000006e+00 4.000429999999999708e+00 2.317610000000000170e+00 4.086179999999999701e+00 2.020410000000000039e+00 5.833109999999999573e+00 4.081570000000000142e+00 1.924090000000000078e+00 1.095220000000000082e+00 7.166970000000000063e+00 -3.620999999999999913e-02 4.620809999999999640e+00 7.168730000000000047e+00 5.959970000000000212e+00 1.097760000000000069e+00 7.169139999999999624e+00 3.996080000000000076e+00 4.610380000000000145e+00 7.174900000000000055e+00
1.490999999999999964e-02 2.332030000000000047e+00 1.574100000000000055e+00 -1.951259999999999994e+00 5.834559999999999746e+00 1.581550000000000011e+00 4.053410000000000402e+00 2.321410000000000196e+00 1.571579999999999977e+00 2.081929999999999836e+00 5.836129999999999818e+00 1.575069999999999970e+00 7.963700000000000223e+00 -5.351000000000000201e-02 5.771480000000000388e+00 5.999419999999999753e+00 3.474260000000000126e+00 5.774720000000000297e+00 3.949199999999999822e+00 -4.608000000000000290e-02 5.779899999999999594e+00 1.975430000000000019e+00 3.463630000000000209e+00 5.770739999999999981e+00 2.035200000000000120e+00 1.173659999999999926e+00 2.609799999999999898e-01 6.060000000000000109e-02 4.688939999999999664e+00 2.506399999999999739e-01 6.059709999999999930e+00 1.160120000000000040e+00 2.542699999999999960e-01 4.104370000000000296e+00 4.692440000000000389e+00 2.599299999999999944e-01 -3.944999999999999896e-02 2.319199999999999928e+00 4.090729999999999755e+00 -2.004529999999999923e+00 5.828949999999999854e+00 4.088510000000000311e+00 3.999319999999999986e+00 2.317229999999999901e+00 4.090650000000000119e+00 2.015919999999999934e+00 5.833359999999999879e+00 4.080639999999999823e+00 1.927349999999999897e+00 1.094510000000000094e+00 7.155380000000000074e+00 -3.371999999999999997e-02 4.622460000000000235e+00 7.162580000000000169e+00 5.952270000000000394e+00 1.093509999999999982e+00 7.161679999999999602e+00 3.992179999999999840e+00 4.608620000000000161e+00 7.179719999999999658e+00
1.845000000000000112e-02 2.334010000000000140e+00 1.570249999999999924e+00 -1.950539999999999941e+00 5.830339999999999634e+00 1.583409999999999984e+00 4.057970000000000077e+00 2.324949999999999850e+00 1.573949999999999960e+00 2.081479999999999997e+00 5.829710000000000392e+00 1.573250000000000037e+00 7.958990000000000009e+00 -5.462000000000000188e-02 5.770120000000000360e+00 5.995390000000000441e+00 3.477959999999999940e+00 5.780780000000000030e+00 3.953580000000000094e+00 -3.858999999999999930e-02 5.786999999999999922e+00 1.975330000000000030e+00 3.461129999999999818e+00 5.769149999999999778e+00 2.032659999999999911e+00 1.173599999999999977e+00 2.589699999999999780e-01 5.877999999999999892e-02 4.687459999999999738e+00 2.500000000000000000e-01 6.063030000000000364e+00 1.151969999999999938e+00 2.549899999999999944e-01 4.112429999999999808e+00 4.697600000000000442e+00 2.605100000000000193e-01 -4.159999999999999809e-02 2.327030000000000154e+00 4.094890000000000363e+00 -2.003750000000000142e+00 5.827079999999999593e+00 4.090130000000000265e+00 3.998209999999999820e+00 2.316840000000000011e+00 4.095200000000000173e+00 2.011449999999999960e+00 5.833599999999999675e+00 4.079860000000000042e+00 1.930609999999999937e+00 1.093839999999999923e+00 7.143670000000000186e+00 -3.122000000000000122e-02 4.624139999999999695e+00 7.156290000000000262e+00 5.944619999999999571e+00 1.089320000000000066e+00 7.154099999999999682e+00 3.988280000000000047e+00 4.606930000000000192e+00 7.184359999999999857e+00
2.198999999999999913e-02 2.335980000000000167e+00 1.566259999999999986e+00 -1.949799999999999978e+00 5.826190000000000424e+00 1.585099999999999953e+00 4.062529999999999752e+00 2.328510000000000080e+00 1.576160000000000005e+00 2.081049999999999844e+00 5.823339999999999961e+00 1.571229999999999905e+00 7.954290000000000305e+00 -5.577000000000000013e-02 5.768849999999999589e+00 5.991360000000000241e+00 3.481630000000000003e+00 5.786950000000000038e+00 3.957910000000000039e+00 -3.116000000000000020e-02 5.794159999999999755e+00 1.975240000000000107e+00 3.458629999999999871e+00 5.767669999999999852e+00 2.030120000000000147e+00 1.173489999999999922e+00 2.570999999999999952e-01 5.696999999999999981e-02 4.685940000000000438e+00 2.494699999999999973e-01 6.066340000000000288e+00 1.143809999999999993e+00 2.558400000000000118e-01 4.120429999999999815e+00 4.702670000000000350e+00 2.611899999999999777e-01 -4.374000000000000110e-02 2.334820000000000118e+00 4.099109999999999587e+00 -2.002959999999999852e+00 5.825230000000000352e+00 4.091870000000000118e+00 3.997090000000000032e+00 2.316450000000000120e+00 4.099809999999999732e+00 2.007010000000000183e+00 5.833820000000000228e+00 4.079220000000000290e+00 1.933840000000000003e+00 1.093220000000000081e+00 7.131859999999999644e+00 -2.870999999999999941e-02 4.625849999999999795e+00 7.149879999999999569e+00 5.937059999999999782e+00 1.085229999999999917e+00 7.146440000000000126e+00 3.984379999999999811e+00 4.605319999999999858e+00 7.188819999999999766e+00
2.552000000000000102e-02 2.337959999999999816e+00 1.562159999999999993e+00 -1.949030000000000040e+00 5.822129999999999583e+00 1.586619999999999919e+00 4.067079999999999806e+00 2.332079999999999931e+00 1.578200000000000047e+00 2.080630000000000202e+00 5.817009999999999792e+00 1.569050000000000056e+00 4.015640000000000320e+00 6.979350000000000165e+00 5.767680000000000362e+00 5.987339999999999662e+00 3.485279999999999934e+00 5.793199999999999683e+00 3.962180000000000035e+00 -2.383000000000000049e-02 5.801339999999999719e+00 1.975139999999999896e+00 3.456129999999999924e+00 5.766289999999999694e+00 2.027610000000000134e+00 1.173310000000000075e+00 2.553799999999999959e-01 5.516000000000000070e-02 4.684389999999999610e+00 2.490400000000000114e-01 6.069619999999999571e+00 1.135650000000000048e+00 2.568199999999999927e-01 4.128350000000000186e+00 4.707620000000000360e+00 2.619500000000000162e-01 -4.589000000000000024e-02 2.342569999999999819e+00 4.103349999999999831e+00 -2.002180000000000071e+00 5.823400000000000354e+00 4.093759999999999621e+00 3.995989999999999931e+00 2.316059999999999786e+00 4.104470000000000063e+00 2.002590000000000092e+00 5.834019999999999762e+00 4.078710000000000058e+00 1.937019999999999964e+00 1.092649999999999899e+00 7.120020000000000238e+00 -2.621000000000000066e-02 4.627570000000000405e+00 7.143379999999999619e+00 5.929610000000000269e+00 1.081250000000000044e+00 7.138760000000000439e+00 3.980480000000000018e+00 4.603780000000000427e+00 7.193109999999999893e+00
2.903999999999999984e-02 2.339920000000000222e+00 1.557960000000000012e+00 -1.948220000000000063e+00 5.818170000000000286e+00 1.588000000000000078e+00 4.071620000000000239e+00 2.335659999999999847e+00 1.580060000000000020e+00 2.080220000000000180e+00 5.810730000000000395e+00 1.566699999999999982e+00 4.010979999999999990e+00 6.978100000000000414e+00 5.766580000000000261e+00 5.983340000000000103e+00 3.488910000000000178e+00 5.799540000000000362e+00 3.966359999999999886e+00 -1.660999999999999976e-02 5.808519999999999683e+00 1.975039999999999907e+00 3.453650000000000109e+00 5.764999999999999680e+00 2.025139999999999940e+00 1.173070000000000057e+00 2.538300000000000001e-01 5.335999999999999771e-02 4.682800000000000296e+00 2.487099999999999866e-01 6.072879999999999612e+00 1.127520000000000078e+00 2.579400000000000026e-01 4.136149999999999771e+00 4.712430000000000341e+00 2.627800000000000136e-01 -4.803999999999999937e-02 2.350270000000000081e+00 4.107579999999999565e+00 -2.001389999999999780e+00 5.821600000000000108e+00 4.095769999999999911e+00 3.994880000000000209e+00 2.315669999999999895e+00 4.109149999999999636e+00 1.998210000000000042e+00 5.834200000000000053e+00 4.078339999999999854e+00 1.940129999999999910e+00 1.092130000000000045e+00 7.108170000000000321e+00 -2.373000000000000109e-02 4.629319999999999879e+00 7.136809999999999654e+00 5.922329999999999650e+00 1.077409999999999979e+00 7.131099999999999994e+00 3.976589999999999847e+00 4.602330000000000254e+00 7.197230000000000238e+00
3.253999999999999948e-02 2.341860000000000053e+00 1.553690000000000015e+00 -1.947380000000000111e+00 5.814329999999999998e+00 1.589239999999999986e+00 4.076139999999999652e+00 2.339230000000000143e+00 1.581730000000000080e+00 2.079829999999999846e+00 5.804509999999999614e+00 1.564200000000000035e+00 4.006359999999999921e+00 6.976810000000000400e+00 5.765530000000000044e+00 5.979350000000000165e+00 3.492529999999999912e+00 5.805950000000000166e+00 3.970439999999999969e+00 -9.539999999999999869e-03 5.815660000000000274e+00 1.974939999999999918e+00 3.451189999999999980e+00 5.763790000000000191e+00 2.022749999999999826e+00 1.172770000000000090e+00 2.524600000000000177e-01 5.156999999999999779e-02 4.681169999999999831e+00 2.484500000000000042e-01 6.076089999999999769e+00 1.119429999999999925e+00 2.591899999999999760e-01 4.143819999999999837e+00 4.717080000000000162e+00 2.636700000000000155e-01 -5.020000000000000157e-02 2.357909999999999950e+00 4.111769999999999925e+00 -2.000609999999999999e+00 5.819849999999999746e+00 4.097900000000000098e+00 3.993790000000000173e+00 2.315300000000000136e+00 4.113809999999999967e+00 1.993859999999999966e+00 5.834360000000000213e+00 4.078070000000000306e+00 1.943130000000000024e+00 1.091660000000000075e+00 7.096350000000000158e+00 -2.126000000000000112e-02 4.631070000000000242e+00 7.130200000000000315e+00 5.915269999999999584e+00 1.073730000000000073e+00 7.123509999999999565e+00 3.972700000000000120e+00 4.600979999999999848e+00 7.201179999999999914e+00
3.601000000000000034e-02 2.343770000000000131e+00 1.549390000000000045e+00 -1.946490000000000054e+00 5.810620000000000118e+00 1.590370000000000061e+00 4.080650000000000333e+00 2.342779999999999863e+00 1.583220000000000072e+00 2.079470000000000152e+00 5.798339999999999606e+00 1.561569999999999903e+00 4.001769999999999605e+00 6.975450000000000372e+00 5.764529999999999710e+00 5.975380000000000358e+00 3.496129999999999960e+00 5.812420000000000364e+00 3.974390000000000089e+00 -2.639999999999999986e-03 5.822729999999999961e+00 1.974839999999999929e+00 3.448760000000000048e+00 5.762640000000000207e+00 2.020449999999999857e+00 1.172420000000000018e+00 2.512699999999999934e-01 4.981000000000000011e-02 4.679529999999999745e+00 2.482600000000000084e-01 6.079250000000000043e+00 1.111399999999999944e+00 2.605899999999999883e-01 4.151349999999999874e+00 4.721549999999999692e+00 2.646000000000000019e-01 -5.238000000000000295e-02 2.365479999999999805e+00 4.115879999999999761e+00 -1.999829999999999997e+00 5.818130000000000024e+00 4.100159999999999805e+00 3.992710000000000203e+00 2.314939999999999998e+00 4.118450000000000166e+00 1.989570000000000061e+00 5.834489999999999732e+00 4.077919999999999767e+00 1.945990000000000109e+00 1.091229999999999922e+00 7.084600000000000009e+00 -1.880000000000000074e-02 4.632839999999999847e+00 7.123560000000000336e+00 5.908459999999999823e+00 1.070240000000000080e+00 7.116039999999999921e+00 3.968799999999999883e+00 4.599730000000000096e+00 7.204970000000000319e+00
3.944999999999999896e-02 2.345629999999999882e+00 1.545069999999999943e+00 -1.945549999999999891e+00 5.807039999999999758e+00 1.591399999999999926e+00 4.085139999999999993e+00 2.346309999999999896e+00 1.584529999999999994e+00 2.079130000000000145e+00 5.792229999999999990e+00 1.558820000000000094e+00 3.997230000000000061e+00 6.974039999999999573e+00 5.763560000000000016e+00 5.971429999999999794e+00 3.499719999999999942e+00 5.818939999999999557e+00 3.978200000000000180e+00 4.060000000000000241e-03 5.829679999999999751e+00 1.974730000000000096e+00 3.446369999999999933e+00 5.761560000000000237e+00 2.018279999999999852e+00 1.171999999999999931e+00 2.502699999999999925e-01 4.807000000000000162e-02 4.677859999999999907e+00 2.481200000000000072e-01 6.082360000000000433e+00 1.103439999999999976e+00 2.621299999999999741e-01 4.158710000000000129e+00 4.725810000000000066e+00 2.655600000000000183e-01 -5.457000000000000045e-02 2.372970000000000024e+00 4.119889999999999830e+00 -1.999049999999999994e+00 5.816469999999999807e+00 4.102520000000000167e+00 3.991649999999999920e+00 2.314599999999999991e+00 4.123039999999999594e+00 1.985309999999999908e+00 5.834590000000000387e+00 4.077849999999999753e+00 1.948700000000000099e+00 1.090850000000000097e+00 7.072960000000000136e+00 -1.637999999999999873e-02 4.634619999999999962e+00 7.116920000000000357e+00 5.901959999999999873e+00 1.066969999999999974e+00 7.108730000000000437e+00 3.964910000000000156e+00 4.598589999999999733e+00 7.208599999999999675e+00
4.284999999999999920e-02 2.347449999999999815e+00 1.540750000000000064e+00 -1.944550000000000001e+00 5.803619999999999557e+00 1.592349999999999932e+00 4.089620000000000033e+00 2.349810000000000176e+00 1.585650000000000004e+00 2.078829999999999956e+00 5.786179999999999879e+00 1.555949999999999944e+00 3.992729999999999890e+00 6.972570000000000157e+00 5.762609999999999566e+00 5.967500000000000249e+00 3.503299999999999859e+00 5.825510000000000410e+00 3.981840000000000046e+00 1.052999999999999943e-02 5.836500000000000021e+00 1.974620000000000042e+00 3.444030000000000147e+00 5.760510000000000019e+00 2.016249999999999876e+00 1.171540000000000026e+00 2.494599999999999873e-01 4.635999999999999843e-02 4.676169999999999938e+00 2.480100000000000082e-01 6.085399999999999920e+00 1.095560000000000089e+00 2.638199999999999990e-01 4.165879999999999583e+00 4.729860000000000397e+00 2.665299999999999891e-01 -5.677999999999999714e-02 2.380370000000000097e+00 4.123759999999999870e+00 -1.998280000000000056e+00 5.814860000000000362e+00 4.104989999999999917e+00 3.990600000000000147e+00 2.314290000000000180e+00 4.127550000000000274e+00 1.981109999999999927e+00 5.834660000000000402e+00 4.077860000000000262e+00 1.951230000000000020e+00 1.090519999999999934e+00 7.061449999999999783e+00 -1.397999999999999937e-02 4.636409999999999698e+00 7.110299999999999621e+00 5.895819999999999617e+00 1.063940000000000108e+00 7.101650000000000240e+00 3.961009999999999920e+00 4.597570000000000157e+00 7.212089999999999890e+00
4.621999999999999720e-02 2.349209999999999798e+00 1.536459999999999937e+00 -1.943489999999999940e+00 5.800360000000000404e+00 1.593239999999999990e+00 4.094079999999999941e+00 2.353270000000000195e+00 1.586580000000000101e+00 2.078549999999999898e+00 5.780179999999999652e+00 1.552990000000000093e+00 3.988290000000000113e+00 6.971029999999999838e+00 5.761650000000000382e+00 5.963580000000000325e+00 3.506889999999999841e+00 5.832119999999999749e+00 3.985289999999999999e+00 1.675000000000000100e-02 5.843140000000000001e+00 1.974509999999999987e+00 3.441749999999999865e+00 5.759490000000000443e+00 2.014380000000000059e+00 1.171010000000000106e+00 2.488599999999999979e-01 4.467999999999999750e-02 4.674459999999999837e+00 2.479200000000000015e-01 6.088370000000000282e+00 1.087769999999999904e+00 2.656499999999999972e-01 4.172860000000000014e+00 4.733670000000000044e+00 2.675000000000000155e-01 -5.902000000000000302e-02 2.387700000000000156e+00 4.127480000000000260e+00 -1.997519999999999962e+00 5.813320000000000043e+00 4.107560000000000322e+00 3.989580000000000126e+00 2.314010000000000122e+00 4.131960000000000299e+00 1.976949999999999985e+00 5.834710000000000285e+00 4.077939999999999898e+00 1.953540000000000054e+00 1.090230000000000032e+00 7.050099999999999589e+00 -1.161000000000000053e-02 4.638200000000000323e+00 7.103710000000000413e+00 5.890069999999999695e+00 1.061190000000000078e+00 7.094839999999999591e+00 3.957100000000000062e+00 4.596659999999999968e+00 7.215429999999999566e+00
4.954000000000000070e-02 2.350900000000000212e+00 1.532219999999999915e+00 -1.942360000000000086e+00 5.797270000000000145e+00 1.594100000000000072e+00 4.098539999999999850e+00 2.356689999999999952e+00 1.587339999999999973e+00 2.078320000000000167e+00 5.774230000000000196e+00 1.549940000000000095e+00 3.983890000000000153e+00 6.969409999999999883e+00 5.760679999999999801e+00 5.959679999999999644e+00 3.510489999999999888e+00 5.838770000000000238e+00 3.988539999999999974e+00 2.271000000000000102e-02 5.849590000000000067e+00 1.974399999999999933e+00 3.439519999999999911e+00 5.758499999999999730e+00 2.012690000000000090e+00 1.170430000000000081e+00 2.484500000000000042e-01 4.302999999999999881e-02 4.672740000000000116e+00 2.478400000000000047e-01 6.091280000000000250e+00 1.080079999999999929e+00 2.676299999999999790e-01 4.179640000000000022e+00 4.737239999999999895e+00 2.684599999999999764e-01 -6.130000000000000032e-02 2.394940000000000069e+00 4.131009999999999849e+00 -1.996769999999999934e+00 5.811829999999999607e+00 4.110219999999999985e+00 3.988579999999999792e+00 2.313769999999999882e+00 4.136269999999999669e+00 1.972830000000000084e+00 5.834710000000000285e+00 4.078059999999999796e+00 1.955619999999999914e+00 1.089979999999999949e+00 7.038929999999999687e+00 -9.280000000000000054e-03 4.639999999999999680e+00 7.097170000000000201e+00 5.884780000000000122e+00 1.058729999999999949e+00 7.088330000000000020e+00 3.953170000000000073e+00 4.595880000000000187e+00 7.218650000000000233e+00
5.283000000000000196e-02 2.352520000000000167e+00 1.528040000000000065e+00 -1.941140000000000088e+00 5.794349999999999667e+00 1.594940000000000024e+00 4.102999999999999758e+00 2.360069999999999890e+00 1.587930000000000064e+00 2.078120000000000189e+00 5.768309999999999604e+00 1.546829999999999927e+00 3.979530000000000012e+00 6.967719999999999914e+00 5.759680000000000355e+00 5.955779999999999852e+00 3.514100000000000001e+00 5.845469999999999722e+00 3.991560000000000219e+00 2.836999999999999938e-02 5.855809999999999960e+00 1.974280000000000035e+00 3.437370000000000037e+00 5.757509999999999906e+00 2.011190000000000033e+00 1.169790000000000108e+00 2.482399999999999884e-01 4.141000000000000236e-02 4.671009999999999884e+00 2.477499999999999980e-01 6.094109999999999694e+00 1.072480000000000100e+00 2.697499999999999898e-01 4.186209999999999987e+00 4.740549999999999820e+00 2.693800000000000083e-01 -6.361999999999999600e-02 2.402099999999999902e+00 4.134350000000000414e+00 -1.996029999999999971e+00 5.810410000000000075e+00 4.112960000000000171e+00 3.987610000000000099e+00 2.313569999999999904e+00 4.140439999999999898e+00 1.968760000000000066e+00 5.834690000000000154e+00 4.078219999999999956e+00 1.957440000000000069e+00 1.089779999999999971e+00 7.027960000000000207e+00 -6.969999999999999633e-03 4.641820000000000057e+00 7.090679999999999872e+00 5.879990000000000272e+00 1.056599999999999984e+00 7.082169999999999632e+00 3.949219999999999953e+00 4.595220000000000304e+00 7.221759999999999735e+00
5.607000000000000178e-02 2.354070000000000107e+00 1.523930000000000007e+00 -1.939829999999999943e+00 5.791610000000000369e+00 1.595790000000000042e+00 4.107459999999999667e+00 2.363410000000000011e+00 1.588340000000000085e+00 2.077970000000000095e+00 5.762410000000000032e+00 1.543639999999999901e+00 3.975220000000000198e+00 6.965939999999999799e+00 5.758630000000000138e+00 5.951880000000000059e+00 3.517749999999999932e+00 5.852229999999999599e+00 3.994339999999999780e+00 3.371999999999999997e-02 5.861780000000000435e+00 1.974169999999999980e+00 3.435290000000000177e+00 5.756509999999999572e+00 2.009910000000000085e+00 1.169079999999999897e+00 2.482399999999999884e-01 3.982999999999999735e-02 4.669260000000000410e+00 2.476299999999999890e-01 6.096860000000000390e+00 1.064990000000000103e+00 2.720299999999999940e-01 4.192560000000000286e+00 4.743590000000000195e+00 2.702600000000000002e-01 -6.598999999999999311e-02 2.409190000000000165e+00 4.137459999999999916e+00 -1.995300000000000074e+00 5.809059999999999668e+00 4.115789999999999615e+00 3.986670000000000158e+00 2.313400000000000123e+00 4.144459999999999589e+00 1.964720000000000022e+00 5.834620000000000140e+00 4.078389999999999738e+00 1.958970000000000100e+00 1.089620000000000033e+00 7.017190000000000261e+00 -4.700000000000000185e-03 4.643640000000000434e+00 7.084249999999999936e+00 5.875740000000000407e+00 1.054820000000000091e+00 7.076410000000000089e+00 3.945219999999999949e+00 4.594710000000000072e+00 7.224770000000000358e+00
5.927999999999999936e-02 2.355539999999999967e+00 1.519910000000000094e+00 -1.938430000000000097e+00 5.789049999999999585e+00 1.596680000000000099e+00 4.111950000000000216e+00 2.366709999999999869e+00 1.588600000000000012e+00 2.077859999999999818e+00 5.756529999999999703e+00 1.540399999999999991e+00 3.970940000000000136e+00 6.964070000000000427e+00 5.757509999999999906e+00 5.947980000000000267e+00 3.521440000000000126e+00 5.859049999999999869e+00 3.996849999999999792e+00 3.873999999999999666e-02 5.867490000000000094e+00 1.974040000000000017e+00 3.433279999999999887e+00 5.755489999999999995e+00 2.008869999999999933e+00 1.168309999999999960e+00 2.484399999999999942e-01 3.826999999999999846e-02 4.667500000000000426e+00 2.474699999999999955e-01 6.099549999999999805e+00 1.057579999999999965e+00 2.744599999999999818e-01 4.198699999999999655e+00 4.746349999999999625e+00 2.710899999999999976e-01 -6.843000000000000471e-02 2.416220000000000034e+00 4.140329999999999622e+00 -1.994590000000000085e+00 5.807780000000000165e+00 4.118689999999999962e+00 3.985759999999999970e+00 2.313289999999999846e+00 4.148320000000000007e+00 1.960709999999999953e+00 5.834509999999999863e+00 4.078570000000000029e+00 1.960190000000000099e+00 1.089490000000000069e+00 7.006639999999999979e+00 -2.459999999999999947e-03 4.645480000000000054e+00 7.077899999999999636e+00 5.872090000000000032e+00 1.053430000000000089e+00 7.071080000000000254e+00 3.941180000000000128e+00 4.594330000000000247e+00 7.227689999999999948e+00
6.246000000000000163e-02 2.356920000000000126e+00 1.515980000000000105e+00 -1.936900000000000066e+00 5.786690000000000111e+00 1.597620000000000040e+00 4.116480000000000139e+00 2.369979999999999976e+00 1.588680000000000092e+00 2.077799999999999869e+00 5.750630000000000130e+00 1.537109999999999976e+00 3.966689999999999827e+00 6.962100000000000399e+00 5.756319999999999659e+00 5.944049999999999834e+00 3.525180000000000202e+00 5.865940000000000154e+00 3.999080000000000190e+00 4.343000000000000332e-02 5.872899999999999565e+00 1.973919999999999897e+00 3.431360000000000188e+00 5.754430000000000156e+00 2.008070000000000022e+00 1.167480000000000073e+00 2.488499999999999879e-01 3.674999999999999795e-02 4.665740000000000443e+00 2.472499999999999976e-01 6.102170000000000094e+00 1.050259999999999971e+00 2.770599999999999730e-01 4.204620000000000246e+00 4.748829999999999885e+00 2.718400000000000261e-01 -7.094000000000000306e-02 2.423210000000000086e+00 4.142949999999999910e+00 -1.993889999999999940e+00 5.806560000000000166e+00 4.121669999999999945e+00 3.984890000000000043e+00 2.313229999999999897e+00 4.152020000000000266e+00 1.956720000000000015e+00 5.834349999999999703e+00 4.078739999999999810e+00 1.961070000000000091e+00 1.089409999999999989e+00 6.996310000000000251e+00 -2.500000000000000052e-04 4.647339999999999804e+00 7.071620000000000239e+00 5.869089999999999918e+00 1.052440000000000042e+00 7.066230000000000011e+00 3.937069999999999848e+00 4.594100000000000072e+00 7.230550000000000033e+00
6.560000000000000553e-02 2.358210000000000139e+00 1.512170000000000014e+00 -1.935259999999999980e+00 5.784519999999999662e+00 1.598640000000000061e+00 4.121059999999999945e+00 2.373209999999999820e+00 1.588619999999999921e+00 2.077789999999999804e+00 5.744710000000000427e+00 1.533770000000000078e+00 3.962450000000000028e+00 6.960020000000000095e+00 5.755020000000000024e+00 5.940100000000000158e+00 3.528989999999999849e+00 5.872919999999999696e+00 4.001009999999999955e+00 4.775999999999999690e-02 5.878020000000000245e+00 1.973780000000000090e+00 3.429510000000000058e+00 5.753309999999999924e+00 2.007540000000000102e+00 1.166570000000000107e+00 2.494699999999999973e-01 3.524999999999999661e-02 4.663949999999999818e+00 2.469600000000000128e-01 6.104720000000000368e+00 1.043020000000000058e+00 2.798200000000000132e-01 4.210320000000000285e+00 4.751000000000000334e+00 2.725000000000000200e-01 -7.352999999999999814e-02 2.430159999999999876e+00 4.145290000000000141e+00 -1.993209999999999926e+00 5.805419999999999803e+00 4.124719999999999942e+00 3.984049999999999869e+00 2.313239999999999963e+00 4.155520000000000103e+00 1.952749999999999986e+00 5.834150000000000169e+00 4.078890000000000349e+00 1.961580000000000101e+00 1.089360000000000106e+00 6.986200000000000188e+00 1.930000000000000075e-03 4.649230000000000196e+00 7.065409999999999968e+00 5.866780000000000328e+00 1.051900000000000057e+00 7.061869999999999870e+00 3.932869999999999866e+00 4.594020000000000437e+00 7.233360000000000234e+00
6.872999999999999943e-02 2.359410000000000007e+00 1.508469999999999978e+00 -1.933480000000000087e+00 5.782540000000000013e+00 1.599769999999999914e+00 4.125700000000000145e+00 2.376399999999999846e+00 1.588400000000000034e+00 2.077830000000000066e+00 5.738730000000000331e+00 1.530389999999999917e+00 3.958219999999999850e+00 6.957819999999999894e+00 5.753599999999999604e+00 5.936099999999999710e+00 3.532890000000000086e+00 5.880010000000000403e+00 4.002620000000000289e+00 5.172000000000000208e-02 5.882810000000000095e+00 1.973649999999999904e+00 3.427750000000000075e+00 5.752130000000000187e+00 2.007289999999999797e+00 1.165580000000000060e+00 2.503000000000000225e-01 3.377000000000000141e-02 4.662160000000000082e+00 2.465799999999999936e-01 6.107210000000000250e+00 1.035840000000000094e+00 2.827600000000000113e-01 4.215819999999999901e+00 4.752880000000000216e+00 2.730699999999999794e-01 -7.623000000000000609e-02 2.437100000000000044e+00 4.147350000000000314e+00 -1.992550000000000043e+00 5.804339999999999833e+00 4.127839999999999954e+00 3.983249999999999957e+00 2.313299999999999912e+00 4.158830000000000027e+00 1.948769999999999891e+00 5.833890000000000242e+00 4.078999999999999737e+00 1.961699999999999999e+00 1.089339999999999975e+00 6.976300000000000168e+00 4.100000000000000346e-03 4.651150000000000340e+00 7.059269999999999712e+00 5.865210000000000257e+00 1.051830000000000043e+00 7.058060000000000223e+00 3.928570000000000118e+00 4.594100000000000072e+00 7.236130000000000173e+00
7.183000000000000496e-02 2.360510000000000108e+00 1.504890000000000061e+00 -1.931540000000000035e+00 5.780770000000000408e+00 1.601020000000000110e+00 4.130440000000000111e+00 2.379579999999999806e+00 1.588030000000000053e+00 2.077939999999999898e+00 5.732680000000000220e+00 1.526960000000000095e+00 3.953980000000000050e+00 6.955490000000000173e+00 5.752049999999999663e+00 5.932039999999999758e+00 3.536890000000000089e+00 5.887240000000000251e+00 4.003899999999999793e+00 5.530000000000000193e-02 5.887279999999999625e+00 1.973500000000000032e+00 3.426079999999999792e+00 5.750849999999999795e+00 2.007350000000000190e+00 1.164500000000000091e+00 2.513599999999999723e-01 3.232000000000000151e-02 4.660339999999999705e+00 2.460799999999999932e-01 6.109650000000000247e+00 1.028710000000000013e+00 2.858899999999999775e-01 4.221110000000000362e+00 4.754430000000000156e+00 2.735199999999999854e-01 -7.904999999999999527e-02 2.444049999999999834e+00 4.149099999999999788e+00 -1.991900000000000004e+00 5.803340000000000387e+00 4.131039999999999601e+00 3.982479999999999798e+00 2.313429999999999875e+00 4.161929999999999907e+00 1.944779999999999953e+00 5.833569999999999922e+00 4.079049999999999621e+00 1.961389999999999967e+00 1.089360000000000106e+00 6.966619999999999813e+00 6.239999999999999887e-03 4.653120000000000367e+00 7.053200000000000358e+00 5.864440000000000097e+00 1.052259999999999973e+00 7.054820000000000313e+00 3.924139999999999961e+00 4.594350000000000378e+00 7.238889999999999603e+00