-7.246776169999999695e+01
-7.247644807999999728e+01
-7.247894526000000326e+01
-7.247483029999999360e+01
-7.246384509000000662e+01
-7.244585417999999777e+01
-7.242089601000000698e+01
-7.238909130999999775e+01
-7.235074310999999625e+01
-7.230632737000000532e+01
-7.225645591999999340e+01
-7.220187303000000156e+01
-7.214343094999999551e+01
-7.208212317999999641e+01
-7.201904871000000696e+01
-7.195528507999999590e+01
-7.189192767000000117e+01
-7.183017284000000302e+01
-7.177127305999999862e+01
-7.171599869000000638e+01
-7.166546979000000306e+01
-7.162055255999999304e+01
-7.158188726999999574e+01
-7.154985107000000255e+01
-7.152477613000000645e+01
-7.150679891999999427e+01
-7.149544801000000405e+01
-7.149020357999999931e+01
-7.149031460000000493e+01
-7.149470771999999386e+01
-7.150217895999999485e+01
-7.151140171000000123e+01
-7.152105023999999389e+01
-7.152991000999999471e+01
-7.153699697000000413e+01
-7.154164040000000568e+01
-7.154348206999999604e+01
-7.154252309999999682e+01
-7.153901679999999885e+01
-7.153339436000000262e+01
-7.152616333000000282e+01
-7.151784318999999357e+01
-7.150892953000000318e+01
-7.149982737999999927e+01
-7.149085970999999518e+01
-7.148226185999999416e+01
-7.147418349999999521e+01
-7.146667352999999423e+01
-7.145980077999999480e+01
-7.145354634999999632e+01
-7.144788368000000389e+01
-7.144276438999999357e+01
-7.143812583000000416e+01
-7.143389297999999599e+01
-7.142999536000000660e+01
-7.142634673000000589e+01
-7.142286024999999938e+01
-7.141945411999999749e+01
-7.141604839999999399e+01
-7.141253587999999297e+01
-7.140881417999999314e+01
-7.140479854999999532e+01
-7.140038801000000035e+01
-7.139547267999999747e+01
-7.138988315999999656e+01
-7.138346961000000590e+01
-7.137607504000000347e+01
-7.136751006000000075e+01
-7.135757044999999721e+01
-7.134602703000000190e+01
-7.133268078000000401e+01
-7.131738165999999524e+01
-7.130006210999999894e+01
-7.128077528000000029e+01
-7.125973281999999642e+01
-7.123744524999999328e+01
-7.121448019999999701e+01
-7.119155874999999867e+01
-7.116960971000000313e+01
-7.114944323000000281e+01
-7.113233682999999985e+01
-7.111862116000000356e+01
-7.110895528999999726e+01
-7.110369083000000501e+01
-7.110300229999999999e+01
-7.110690877999999771e+01
-7.111528873000000317e+01
-7.112793109000000413e+01
-7.114457443999999953e+01
-7.116488311999999894e+01
-7.118855005999999719e+01
-7.121519472999999323e+01
-7.124445934999999963e+01
-7.127596853999999382e+01
-7.130934662999999318e+01
-7.134421650000000170e+01
-7.138026179999999954e+01
-7.141692577000000597e+01
-7.145384233000000052e+01
-7.149053272999999820e+01
-7.152654669000000354e+01
-7.156131548000000464e+01
-7.159427375999999299e+01
-7.162482500999999502e+01
-7.165234214000000179e+01
-7.167617599000000439e+01
-7.169568522999999516e+01
-7.171026768999999490e+01
-7.171935478000000330e+01
-7.172245750000000442e+01
-7.171921224000000450e+01
-7.170937695000000645e+01
-7.169289727000000312e+01
-7.166989207000000306e+01
-7.164066613999999333e+01
-7.160569614999999999e+01
-7.156566159000000482e+01
-7.152135099000000196e+01
-7.147364143000000070e+01
-7.142347220999999990e+01
-7.137179138000000478e+01
-7.131952307000000246e+01
-7.126755713999999386e+01
-7.121673173000000645e+01
-7.116777140000000657e+01
-7.112136692999999354e+01
-7.107801677000000495e+01
-7.103826051999999436e+01
-7.100246608999999864e+01
-7.097097381999999754e+01
-7.094403540000000419e+01
-7.092182889000000046e+01
-7.090446690999999646e+01
-7.089197930000000270e+01
-7.088432495000000699e+01
-7.088136172999999474e+01
-7.088284036999999671e+01
-7.088840405999999916e+01
-7.089756724999999449e+01
-7.090973004999999318e+01
-7.092418999000000213e+01
-7.094013237999999433e+01
-7.095669359999999415e+01
-7.097299786000000665e+01
-7.098822622999999510e+01
-7.100167371000000571e+01
-7.101284653999999819e+01
-7.102150143999999443e+01
-7.102763056999999947e+01
-7.103144283999999686e+01
-7.103348809000000585e+01
-7.103423082000000477e+01
-7.103435204999999542e+01
-7.103449999999999420e+01
-7.103523020999999460e+01
-7.103706587000000638e+01
-7.104037259999999776e+01
-7.104544950999999742e+01
-7.105243224999999541e+01
-7.106141879999999844e+01
-7.107241324000000304e+01
-7.108536078000000202e+01
-7.110017107999999553e+01
-7.111670402000000024e+01
-7.113480438999999933e+01
-7.115431429999999580e+01
-7.117502546999999424e+01
-7.119673869999999738e+01
-7.121929611000000193e+01
-7.124245444000000305e+01
-7.126598882999999773e+01
-7.128964025999999876e+01
-7.131314152000000206e+01
-7.133619767999999794e+01
-7.135846155999999496e+01
-7.137957199000000230e+01
-7.139910983000000044e+01
-7.141665328000000557e+01
-7.143177262999999755e+01
-7.144403701999999612e+01
-7.145302528000000564e+01
-7.145838032999999712e+01
-7.145981227000000047e+01
-7.145713390000000231e+01
-7.145029214999999567e+01
-7.143937286999999969e+01
-7.142456353000000036e+01
-7.140623032000000592e+01
-7.138476749999999527e+01
-7.136072246999999891e+01
-7.133466966000000298e+01
-7.130723120000000392e+01
-7.127907693999999594e+01
-7.125083924000000479e+01
-7.122305312999999671e+01
-7.117085213999999382e+01
-7.114766151999999977e+01
-7.112675153000000705e+01
-7.110862007999999435e+01
-7.109342193000000520e+01
-7.108134785000000022e+01
-7.107249865999999372e+01
-7.106689018999999519e+01
-7.106444673999999395e+01
-7.106500871000000075e+01
-7.106832244999999659e+01
-7.107407302000000016e+01
-7.108178881999999987e+01
-7.109094197000000293e+01
-7.110093544000000065e+01
-7.111109795999999506e+01
-7.112074499000000571e+01
-7.112918222999999784e+01
-7.113572688000000710e+01
-7.113980415999999707e+01
-7.114096745999999882e+01
-7.113895560999999645e+01
-7.113367834000000300e+01
-7.112524822999999685e+01
-7.111394669999999962e+01
-7.110022082999999782e+01
-7.108464078000000086e+01
-7.106782422999999937e+01
-7.105043799000000604e+01
-7.103314201999999966e+01
-7.101656051000000502e+01
-7.100123763000000565e+01
-7.098766553999999473e+01
-7.097626424999999983e+01
-7.096738980000000652e+01
-7.096134987000000649e+01
-7.095827665999999567e+01
-7.095840144000000294e+01
-7.096176948999999468e+01
-7.096841732999999408e+01
-7.097833620999999482e+01
-7.099145586999999580e+01
-7.100765911000000585e+01
-7.102675078999999414e+01
-7.104847968999999352e+01
-7.107249663000000339e+01
-7.109837362000000383e+01
-7.112558841999999970e+01
-7.115363517999999488e+01
-7.118172952000000464e+01
-7.120917183999999622e+01
-7.123514303999999697e+01
-7.125881932999999435e+01
-7.127941427999999746e+01
-7.129619816999999671e+01
-7.130853428999999721e+01
-7.131597745999999916e+01
-7.131824663000000442e+01
-7.131536916000000303e+01
-7.130746421000000623e+01
-7.129498793999999862e+01
-7.127855544999999893e+01
-7.125893682000000240e+01
-7.123699265000000480e+01
-7.121365090000000464e+01
-7.118986999000000537e+01
-7.116651330000000542e+01
-7.114440548999999692e+01
-7.112434654000000478e+01
-7.110699121999999761e+01
-7.109287577000000624e+01
-7.108243446999999549e+01
-7.107600530999999933e+01
-7.107377316999999550e+01
-7.107581618000000390e+01
-7.108208831000000316e+01
-7.109241901000000041e+01
-7.110650510000000679e+01
-7.112389032999999472e+01
-7.114401911999999584e+01
-7.116620179000000235e+01
-7.118963813999999957e+01
-7.121340379999999470e+01
-7.123651128000000199e+01
-7.125794845999999438e+01
-7.127669308000000115e+01
-7.129178598000000022e+01
-7.130241626999999482e+01
-7.130792135999999459e+01
-7.130789860000000147e+01
-7.130223071999999718e+01
-7.129109400000000107e+01
-7.127492596000000447e+01
-7.125440661000000375e+01
-7.123046216000000186e+01
-7.120412251000000481e+01
-7.117648139000000640e+01
-7.114876096000000416e+01
-7.112197555000000193e+01
-7.109730050000000290e+01
-7.107550693999999680e+01
-7.105746514000000502e+01
-7.104369542999999965e+01
-7.103477105000000336e+01
-7.103099251999999808e+01
-7.103243826000000638e+01
-7.103909307000000695e+01
-7.105081146000000558e+01
-7.106735204999999667e+01
-7.108819905000000006e+01
-7.111286153000000354e+01
-7.114073080000000004e+01
-7.117108625999999560e+01
-7.120319057000000385e+01
-7.123625056999999572e+01
-7.126946549000000175e+01
-7.130208682999999326e+01
-7.133339300000000094e+01
-7.136276178999999331e+01
-7.138968726000000231e+01
-7.141380741000000398e+01
-7.143491201000000501e+01
-7.145292600000000505e+01
-7.146791785000000630e+01
-7.148008559999999534e+01
-7.148971941000000641e+01
-7.149716909999999359e+01
-7.150282574999999952e+01
-7.150710101999999324e+01
-7.151036791999999309e+01
-7.151297103999999649e+01
-7.151522764999999993e+01
-7.151739688000000683e+01
-7.151967593999999906e+01
-7.152224787999999478e+01
-7.152522337000000618e+01
-7.152867707000000053e+01
-7.153266085999999291e+01
-7.153718422000000032e+01
-7.154226617999999860e+01
-7.154785975000000064e+01
-7.155394083999999566e+01
-7.156045670999999686e+01
-7.156731490999999323e+01
-7.157443600000000572e+01
-7.158173157999999603e+01
-7.158908302000000390e+01
-7.159636949000000072e+01
-7.160344524999999294e+01
-7.161013479999999731e+01
-7.161628346999999906e+01
-7.162170260000000610e+01
-7.162617283000000157e+01
-7.162948860000000195e+01
-7.163145242999999596e+01
-7.163192469000000528e+01
-7.163065786999999318e+01
-7.162697375000000477e+01
-7.162152378999999769e+01
-7.161387451999999598e+01
-7.160399972999999818e+01
-7.159192217000000369e+01
-7.157767298999999639e+01
-7.156167007999999896e+01
-7.154380874999999662e+01
-7.152445690000000411e+01
-7.150392859000000101e+01
-7.148255609000000277e+01
-7.146056366999999909e+01
-7.143841240000000425e+01
-7.141643924999999626e+01
-7.139499392000000455e+01
-7.137404832999999371e+01
-7.135426495000000102e+01
-7.133574466999999686e+01
-7.131878322999999398e+01
-7.130332839999999806e+01
-7.128975676000000306e+01
-7.127813974000000030e+01
-7.126855405000000587e+01
-7.126114468999999474e+01
-7.125586454000000458e+01
-7.125276263000000654e+01
-7.125186745000000599e+01
-7.125276368000000105e+01
-7.125575530000000413e+01
-7.126053520000000674e+01
-7.126689195999999527e+01
-7.127449183000000232e+01
-7.128313735999999778e+01
-7.129237066000000311e+01
-7.130178562999999770e+01
-7.131094025999999531e+01
-7.131938533000000291e+01
-7.132670769000000632e+01
-7.133245447000000183e+01
-7.133629883000000405e+01
-7.133794917999999541e+01
-7.133721377999999902e+01
-7.133404070000000274e+01
-7.132839638999999465e+01
-7.132043602999999621e+01
-7.131041822999999624e+01
-7.129866117000000258e+01
-7.128555328000000202e+01
-7.127149468000000354e+01
-7.125689094000000523e+01
-7.124229982999999322e+01
-7.122803405000000510e+01
-7.121459835999999655e+01
-7.120237444999999354e+01
-7.119172021999999345e+01
-7.118314381000000424e+01
-7.117640923999999814e+01
-7.117239770999999848e+01
-7.117115425000000073e+01
-7.117276037999999971e+01
-7.117710098999999957e+01
-7.118445063999999434e+01
-7.119464159000000336e+01
-7.120752611000000343e+01
-7.122285483000000283e+01
-7.124029113999999652e+01
-7.125939501999999948e+01
-7.127962080000000356e+01
-7.130034007000000429e+01
-7.132085777000000348e+01
-7.134045097000000624e+01
-7.135837804000000517e+01
-7.137394145000000378e+01
-7.138656238000000087e+01
-7.139578984999999989e+01
-7.140137848000000531e+01
-7.140327736999999786e+01
-7.140162832000000037e+01
-7.139672545999999898e+01
-7.138904635999999471e+01
-7.137916993000000332e+01
-7.136772428999999818e+01
-7.135525551000000632e+01
-7.134250731999999573e+01
-7.133001194000000567e+01
-7.131823153000000559e+01
-7.130760967999999878e+01
-7.129851472000000001e+01
-7.129122366999999372e+01
-7.128592358999999590e+01
-7.128287566000000197e+01
-7.128211620000000437e+01
-7.128373725000000150e+01
-7.128776673999999502e+01
-7.129419618000000014e+01
-7.130296525999999346e+01
-7.131398111000000029e+01
-7.132710729999999444e+01
-7.134215304999999319e+01
-7.135889423999999792e+01
-7.137706737999999973e+01
-7.139625857999999425e+01
-7.141622400999999343e+01
-7.145502659999999651e+01
-7.147356596000000195e+01
-7.149057421000000545e+01
-7.150546400000000347e+01
-7.151774826999999846e+01
-7.152694257000000277e+01
-7.153271675999999957e+01
-7.153507618999999806e+01
-7.153367099999999823e+01
-7.152894141000000161e+01
-7.152103587999999945e+01
-7.151041270999999711e+01
-7.149761191999999710e+01
-7.148325683999999569e+01
-7.146797929000000238e+01
-7.145232400000000439e+01
-7.143690968999999313e+01
-7.142224192000000471e+01
-7.140878539000000558e+01
-7.139695600000000297e+01
-7.138706741000000022e+01
-7.137941990999999575e+01
-7.137422823999999366e+01
-7.137166492000000062e+01
-7.137182993999999780e+01
-7.137478457000000276e+01
-7.138055328000000088e+01
-7.138909846999999331e+01
-7.140032458999999676e+01
-7.141409201000000451e+01
-7.143021362999999724e+01
-7.144842658000000313e+01
-7.146846537999999782e+01
-7.148980285000000379e+01
-7.151199907000000167e+01
-7.153448029000000474e+01
-7.155651862000000563e+01
-7.157745121000000665e+01
-7.159657221999999877e+01
-7.161312331999999969e+01
-7.162641917000000547e+01
-7.163586469999999906e+01
-7.164097671999999761e+01
-7.164142397000000528e+01
-7.163707367000000659e+01
-7.162799615000000131e+01
-7.161448181000000091e+01
-7.159692916000000196e+01
-7.157587872000000573e+01
-7.155194265000000087e+01
-7.152578246000000206e+01
-7.149810105999999621e+01
-7.146953272999999740e+01
-7.144071698999999853e+01
-7.141222987999999816e+01
-7.138456401000000540e+01
-7.135817032999999299e+01
-7.133341595999999640e+01
-7.131063561999999934e+01
-7.129008222000000217e+01
-7.127196643999999992e+01
-7.125646050000000287e+01
-7.124367949999999894e+01
-7.123369975999999326e+01
-7.122656360000000575e+01
-7.122219169000000250e+01
-7.122049191000000690e+01
-7.122132505000000435e+01
-7.122442447000000243e+01
-7.122944243000000597e+01
-7.123590341999999964e+01
-7.124321507000000508e+01
-7.125072197000000074e+01
-7.125763428999999860e+01
-7.126311486999999545e+01
-7.126630916999999954e+01
-7.126634964000000139e+01
-7.126249201999999627e+01
-7.125417672999999752e+01
-7.124102503000000297e+01
-7.122301711000000068e+01
-7.120035756999999421e+01
-7.117353135000000464e+01
-7.114327222999999378e+01
-7.111048764999999605e+01
-7.107620579999999677e+01
-7.104144186999999988e+01
-7.100721455000000049e+01
-7.097443701999999632e+01
-7.094391004000000578e+01
-7.091632035000000656e+01
-7.089223927999999830e+01
-7.087210156000000438e+01
-7.085622481000000050e+01
-7.084478790999999376e+01
-7.083787180000000205e+01
-7.083542464999999311e+01
-7.083730122999999423e+01
-7.084328571999999724e+01
-7.085306045999999469e+01
-7.086611888999999564e+01
-7.088197196999999505e+01
-7.089997114000000522e+01
-7.091954393000000323e+01
-7.093979625000000055e+01
-7.095990623000000141e+01
-7.097895327000000520e+01
-7.099597712000000627e+01
-7.101000562999999488e+01
-7.102012557000000470e+01
-7.102548181000000227e+01
-7.102537329000000454e+01
-7.101930237000000545e+01
-7.100703905000000304e+01
-7.098866452000000038e+01
-7.096458934000000340e+01
-7.093552205000000299e+01
-7.090244038000000160e+01
-7.086650136000000089e+01
-7.082899161000000277e+01
-7.079121395999999322e+01
-7.075445657999999582e+01
-7.071983806999999445e+01
-7.068843139999999892e+01
-7.066103495000000123e+01
-7.063881428000000540e+01
-7.062206577999999979e+01
-7.060892656999999417e+01
-7.060222022000000663e+01
-7.060145013999999719e+01
-7.060619891999999709e+01
-7.061616573999999957e+01
-7.063092127000000175e+01
-7.065000752000000261e+01
-7.067272232000000542e+01
-7.069838212999999882e+01
-7.072606527000000654e+01
-7.075482830999999351e+01
-7.078363287000000525e+01
-7.081138004000000308e+01
-7.083698293999999862e+01
-7.085942405999999494e+01
-7.087775433999999564e+01
-7.089127231999999879e+01
-7.089949183000000232e+01
-7.090223738999999625e+01
-7.089968392000000108e+01
-7.089239096999999390e+01
-7.088118624000000523e+01
-7.086714539000000457e+01
-7.085151677000000348e+01
-7.083558761999999831e+01
-7.082061665999999889e+01
-7.080776369000000159e+01
-7.079800181000000237e+01
-7.079210299000000362e+01
-7.079059483999999713e+01
-7.079378493000000105e+01
-7.080179117000000133e+01
-7.081451067000000421e+01
-7.083169542999999635e+01
-7.085298375000000703e+01
-7.087792532999999651e+01
-7.090599568999999747e+01
-7.093665009000000055e+01
-7.096929391000000464e+01
-7.100332482999999684e+01
-7.103815000999999540e+01
-7.107318503999999848e+01
-7.110789796999999623e+01
-7.114177693000000602e+01
-7.117436236999999721e+01
-7.120524602000000414e+01
-7.123406629000000123e+01
-7.126051538000000107e+01
-7.128437153999999509e+01
-7.130544854000000043e+01
-7.132364696000000492e+01
-7.133891986999999801e+01
-7.135129607000000362e+01
-7.136084549999999638e+01
-7.136770681000000138e+01
-7.137208234999999945e+01
-7.137419934000000410e+01
-7.137432406000000640e+01
-7.137274354000000187e+01
-7.136977824000000226e+01
-7.136575012000000129e+01
-7.136097515999999530e+01
-7.135576657999999384e+01
-7.135041832000000284e+01
-7.134522990000000675e+01
-7.134044810999999697e+01
-7.133631588000000079e+01
-7.133303515000000061e+01
-7.133071730999999716e+01
-7.132945770000000607e+01
-7.132928282999999681e+01
-7.133014889999999752e+01
-7.133196037000000445e+01
-7.133455159999999751e+01
-7.133770189000000528e+01
-7.134114049000000080e+01
-7.134455140999999401e+01
-7.134760937000000069e+01
-7.134995976000000439e+01
-7.135126361000000372e+01
-7.135120123999999464e+01
-7.134952502999999524e+01
-7.134607069999999851e+01
-7.134075086999999371e+01
-7.133359880999999802e+01
-7.132471198999999729e+01
-7.131434163000000126e+01
-7.130279726000000551e+01
-7.129049476000000141e+01
-7.127785685000000626e+01
-7.126535628000000600e+01
-7.125344497000000388e+01
-7.124255834000000220e+01
-7.123306938000000343e+01
-7.122527970000000153e+01
-7.121937151000000199e+01
-7.121545301000000450e+01
-7.121349720999999988e+01
-7.121338742999999738e+01
-7.121487523999999780e+01
-7.121760518000000673e+01
-7.122113482999999690e+01
-7.122494453000000192e+01
-7.122844972999999413e+01
-7.123103543999999943e+01
-7.123208257000000287e+01
-7.123102504999999951e+01
-7.122731351999999561e+01
-7.122051897000000054e+01
-7.121032709000000693e+01
-7.119655299000000070e+01
-7.117922165000000234e+01
-7.115851682999999639e+01
-7.113482976999999607e+01
-7.110874119000000348e+01
-7.108099986000000570e+01
-7.105262969999999711e+01
-7.102449559999999451e+01
-7.099779583999999488e+01
-7.097363737000000583e+01
-7.095308366999999805e+01
-7.093708877999999629e+01
-7.092636917000000096e+01
-7.092162831999999639e+01
-7.092307125000000667e+01
-7.093066939000000559e+01
-7.094407092000000148e+01
-7.096261411999999780e+01
-7.098531945000000576e+01
-7.101102047999999911e+01
-7.103839155000000005e+01
-7.106608826000000079e+01
-7.109282446000000277e+01
-7.111756735999999535e+01
-7.113947812000000681e+01
-7.115798992999999939e+01
-7.117296475999999927e+01
-7.118454805000000363e+01
-7.119314189000000681e+01
-7.119935954999999694e+01
-7.120393853999999578e+01
-7.120762711999999794e+01
-7.121114027000000135e+01
-7.121507542999999885e+01
-7.121989711000000511e+01
-7.122589858000000618e+01
-7.123321140000000185e+01
-7.124180416999999466e+01
-7.125149921999999947e+01
-7.126198556999999312e+01
-7.127285781999999870e+01
-7.128368704000000378e+01
-7.129391701999999498e+01
-7.130299556999999311e+01
-7.131039002999999354e+01
-7.131560032000000149e+01
-7.131817268000000354e+01
-7.131771917000000371e+01
-7.131393522999999846e+01
-7.130659808999999427e+01
-7.129559734000000049e+01
-7.128091480999999874e+01
-7.126265626999999370e+01
-7.124103282000000092e+01
-7.121645187000000021e+01
-7.118930109000000073e+01
-7.116014083999999684e+01
-7.112958849000000328e+01
-7.109830275000000199e+01
-7.106695019000000002e+01
-7.103621841999999731e+01
-7.100660874999999805e+01
-7.097858655000000283e+01
-7.095248535999999717e+01
-7.092848664999999642e+01
-7.090660015999999644e+01
-7.088672191999999939e+01
-7.086860518000000297e+01
-7.085196578999999417e+01
-7.083649400000000185e+01
-7.082189187999999547e+01
-7.080793144000000439e+01
-7.079457236000000364e+01
-7.078179606000000490e+01
-7.076977750999999728e+01
-7.075897417000000189e+01
-7.074907238999999493e+01
-7.074137041999999553e+01
-7.073598527999999419e+01
-7.073328596000000346e+01
-7.073389715999999794e+01
-7.073786687999999856e+01
-7.074545876999999905e+01
-7.075676891999999896e+01
-7.077173600000000420e+01
-7.079019257000000209e+01
-7.081188907000000654e+01
-7.083649517000000628e+01
-7.086361861000000317e+01
-7.089278559999999629e+01
-7.092350451000000078e+01
-7.095527574999999842e+01
-7.098762670000000696e+01
-7.102005807000000459e+01
-7.105214556999999331e+01
-7.108349708999999450e+01
-7.111376341000000423e+01
-7.114264928999999427e+01
-7.116991822999999329e+01
-7.119536651999999322e+01
-7.121885179000000221e+01
-7.124031705999999531e+01
-7.125970680999999729e+01
-7.127705675999999357e+01
-7.129237965000000088e+01
-7.130574072000000285e+01
-7.131721616999999469e+01
-7.132692523000000051e+01
-7.133500322999999810e+01
-7.134158657000000403e+01
-7.134683678000000384e+01
-7.135090889999999320e+01
-7.135393068000000483e+01
-7.135611215999999501e+01
-7.135757454000000166e+01
-7.135850220999999749e+01
-7.135906092000000456e+01
-7.135937441000000092e+01
-7.135954748999999708e+01
-7.135967879999999752e+01
-7.135983297999999309e+01
-7.136008343000000309e+01
-7.136046695000000284e+01
-7.136098780999999747e+01
-7.136159360000000618e+01
-7.136222173000000168e+01
-7.136277560000000619e+01
-7.136315688000000534e+01
-7.136326497000000302e+01
-7.136301156000000390e+01
-7.136233767000000228e+01
-7.136119779000000563e+01
-7.135961226999999951e+01
-7.135761324000000627e+01
-7.135528986999999290e+01
-7.135273293999999566e+01
-7.135005793000000551e+01
-7.134737690000000043e+01
-7.134477685000000236e+01
-7.134229544999999462e+01
-7.133994187000000409e+01
-7.133766382999999678e+01
-7.133542701000000363e+01
-7.133315788999999540e+01
-7.133077892000000020e+01
-7.132825065000000109e+01
-7.132558726999999976e+01
-7.132282537000000389e+01
-7.132005202000000565e+01
-7.131741898999999307e+01
-7.131506998999999780e+01
-7.131326923000000306e+01
-7.131219011999999680e+01
-7.131214780000000530e+01
-7.131334508000000483e+01
-7.131600677000000132e+01
-7.132032931999999903e+01
-7.132646570999999369e+01
-7.133450799000000586e+01
-7.134451952000000574e+01
-7.135650329000000625e+01
-7.137033673999999905e+01
-7.138591479000000106e+01
-7.140299817999999732e+01
-7.142129022000000305e+01
-7.144039693000000568e+01
-7.145990206999999828e+01
-7.147929754000000457e+01
-7.149803971999999419e+01
-7.151554663000000289e+01
-7.153125171000000648e+01
-7.154459022999999718e+01
-7.155509164999999427e+01
-7.156235977999999420e+01
-7.156599441000000184e+01
-7.156586006000000566e+01
-7.156181607999999983e+01
-7.155404613999999697e+01
-7.154267149000000359e+01
-7.152809598999999707e+01
-7.151075634999999409e+01
-7.149123996000000147e+01
-7.147015758999999946e+01
-7.144815640000000201e+01
-7.142590151000000276e+01
-7.140401635000000624e+01
-7.138304648000000441e+01
-7.136346190999999806e+01
-7.134561775000000239e+01
-7.132974156999999593e+01
-7.131592752999999618e+01
-7.130412723000000597e+01
-7.129414137999999923e+01
-7.128574697000000526e+01
-7.127849892000000409e+01
-7.127197757000000422e+01
-7.126567590000000507e+01
-7.125913685000000442e+01
-7.125188108000000398e+01
-7.124353705999999420e+01
-7.123379024999999842e+01
-7.122244741000000090e+01
-7.120944828999999743e+01
-7.119482981000000166e+01
-7.117871331000000623e+01
-7.116134150999999974e+01
-7.114302157999999565e+01
-7.112409298999999407e+01
-7.110491867000000354e+01
-7.108584036999999967e+01
-7.106719981000000530e+01
-7.104920916000000375e+01
-7.103214785999999492e+01
-7.101618399000000181e+01
-7.100151990999999896e+01
-7.098833926000000361e+01
-7.097682016999999632e+01
-7.096714824999999394e+01
-7.095954254000000105e+01
-7.095420807000000707e+01
-7.095133697999999356e+01
-7.095109347999999727e+01
-7.095361809999999991e+01
-7.095899117999999817e+01
-7.096721322999999870e+01
-7.097822116000000392e+01
-7.099188350000000014e+01
-7.100797237999999822e+01
-7.102617976999999883e+01
-7.104609666000000345e+01
-7.106726487000000247e+01
-7.108911012999999457e+01
-7.111112561000000198e+01
-7.113265355999999429e+01
-7.115311633000000313e+01
-7.117195153999999491e+01
-7.118861295000000666e+01
-7.120265295000000094e+01
-7.121367666999999813e+01
-7.122140926000000150e+01
-7.122567721999999435e+01
-7.122643897000000379e+01
-7.122376819999999498e+01
-7.121782758999999885e+01
-7.120885902999999928e+01
-7.119721162999999819e+01
-7.118340304999999546e+01
-7.116760723999999527e+01
-7.115054738999999984e+01
-7.113266357000000539e+01
-7.111443884000000537e+01
-7.109642646999999727e+01
-7.107900510000000338e+01
-7.106262895999999785e+01
-7.104737889999999823e+01
-7.103406968999999549e+01
-7.102286540000000059e+01
-7.101382825000000310e+01
-7.100717412999999567e+01
-7.100301573000000133e+01
-7.100136874000000375e+01
-7.100211380000000361e+01
-7.100510712999999896e+01
-7.101009071000000006e+01
-7.101674851999999305e+01
-7.102469041000000516e+01
-7.103344606999999655e+01
-7.104254654999999730e+01
-7.105148748999999953e+01
-7.105974365000000148e+01
-7.106685772999999529e+01
-7.107237978999999939e+01
-7.107592381000000614e+01
-7.107726732000000425e+01
-7.107624024000000418e+01
-7.107283268000000476e+01
-7.106718445999999290e+01
-7.105949391000000048e+01
-7.105009106999999346e+01
-7.103940882000000556e+01
-7.102794703000000709e+01
-7.101626009000000295e+01
-7.100494623000000161e+01
-7.099461220000000594e+01
-7.098585491000000047e+01
-7.097925030000000390e+01
-7.097535209000000123e+01
-7.097466878000000179e+01
-7.097763521999999625e+01
-7.098458965000000376e+01
-7.099573528000000522e+01
-7.101121462999999778e+01
-7.103101460999999972e+01
-7.105499224999999797e+01
-7.108286277000000553e+01
-7.111418998999999985e+01
-7.114840395999999600e+01
-7.118478439000000435e+01
-7.122247561999999732e+01
-7.126057812999999896e+01
-7.129813090000000386e+01
-7.133415205999999387e+01
-7.136770760999999652e+01
-7.139795861000000343e+01
-7.142418539000000521e+01
-7.144582644000000471e+01
-7.146254201000000705e+01
-7.147411133999999322e+01
-7.148065669000000355e+01
-7.148241382000000499e+01
-7.147972013999999774e+01
-7.147316311999999527e+01
-7.146332854999999995e+01
-7.145090344000000471e+01
-7.143660158999999510e+01
-7.142112493999999856e+01
-7.140515709000000300e+01
-7.138933208000000263e+01
-7.137422979000000112e+01
-7.136035167999999373e+01
-7.134812322000000506e+01
-7.133790632000000187e+01
-7.132996013999999718e+01
-7.132446342999999445e+01
-7.132148847000000558e+01
-7.132100140999999383e+01
-7.132288839999999652e+01
-7.132692054999999698e+01
-7.133277445999999600e+01
-7.134003819999999507e+01
-7.134819625000000087e+01
-7.135667447000000152e+01
-7.136484482000000185e+01
-7.137205065999999931e+01
-7.137767438999999570e+01
-7.138111530999999843e+01
-7.138190749999999696e+01
-7.137973148000000378e+01
-7.137442953000000045e+01
-7.136604626999999823e+01
-7.135483335000000693e+01
-7.134120491999999558e+01
-7.132579862999999420e+01
-7.130926938000000348e+01
-7.129236197999999547e+01
-7.127580299000000252e+01
-7.126028100000000620e+01
-7.124638960999999426e+01
-7.123461251000000516e+01
-7.122532139000000484e+01
-7.121879638999999429e+01
-7.121515012000000411e+01
-7.121445174999999495e+01
-7.121662637999999390e+01
-7.122158391000000677e+01
-7.122915310000000488e+01
-7.123904548000000148e+01
-7.125095179999999573e+01
-7.126455513999999880e+01
-7.127945970000000386e+01
-7.129526959000000375e+01
-7.131156674999999723e+01
-7.132791462000000138e+01
-7.134380903000000274e+01
-7.135881829000000209e+01
-7.137243607999999995e+01
-7.138420161000000519e+01
-7.139367656000000295e+01
-7.140044109000000105e+01
-7.140413243999999793e+01
-7.140444741999999678e+01
-7.140116922999999360e+01
-7.139413279000000045e+01
-7.138327678000000276e+01
-7.136866433000000143e+01
-7.135047742000000426e+01
-7.132890009000000475e+01
-7.130425863000000675e+01
-7.127690629999999317e+01
-7.124719444000000124e+01
-7.121556934999999555e+01
-7.118248065000000224e+01
-7.114835102000000688e+01
-7.111362400000000150e+01
-7.107870497000000398e+01
-7.104408728999999312e+01
-7.101011397000000613e+01
-7.097721604999999556e+01
-7.094576623000000382e+01
-7.091612261000000217e+01
-7.088863166000000149e+01
-7.086355288999999402e+01
-7.084118553999999790e+01
-7.082186068000000034e+01
-7.080567403999999954e+01
-7.079278266000000031e+01
-7.078328344999999899e+01
-7.077714400000000694e+01
-7.077426477999999577e+01
-7.077444855000000246e+01
-7.077758550000000071e+01
-7.078315209000000152e+01
-7.079090078000000119e+01
-7.080048080999999627e+01
-7.081154813000000559e+01
-7.082375829000000067e+01
-7.083684110999999461e+01
-7.085057885000000510e+01
-7.086484362999999576e+01
-7.087958897999999408e+01
-7.089474699000000157e+01
-7.091025179999999750e+01
-7.092610301000000561e+01
-7.094222021999999583e+01
-7.095857021000000486e+01
-7.097510415000000705e+01
-7.099173593999999810e+01
-7.100838360000000193e+01
-7.102493606999999542e+01
-7.104128916999999888e+01
-7.105734413000000416e+01
-7.107299446000000387e+01
-7.108816251999999736e+01
-7.110276844999999923e+01
-7.111673955999999919e+01
-7.113004829999999856e+01
-7.114265605999999309e+01
-7.115453449000000319e+01
-7.116566828999999927e+01
-7.117603531999999689e+01
-7.118565214000000196e+01
-7.119449597999999924e+01
-7.120253925999999467e+01
-7.120975703000000578e+01
-7.121611378999999431e+01
-7.122151650000000700e+01
-7.122587434000000428e+01
-7.122904450999999426e+01
-7.123087329999999895e+01
-7.123115878999999495e+01
-7.122967309999999941e+01
-7.122616130000000112e+01
-7.122039540000000102e+01
-7.121215134999999918e+01
-7.120125339000000508e+01
-7.118757748999999535e+01
-7.117110327999999697e+01
-7.115191488000000675e+01
-7.113021211999999593e+01
-7.110634559999999738e+01
-7.108078675000000146e+01
-7.105412468000000104e+01
-7.102709819000000380e+01
-7.100046790999999757e+01
-7.097505737000000181e+01
-7.095159947000000500e+01
-7.093087733999999500e+01
-7.091352820999999551e+01
-7.090015171000000294e+01
-7.089114540999999292e+01
-7.088682172000000037e+01