3.184499999999999831e-02 8.179300000000000459e-02 -5.864989999999999926e-01 3.443299999999999833e-02 1.131810000000000038e-01 -5.752059999999999951e-01 1.488100000000000013e-02 1.333070000000000088e-01 -4.347889999999999810e-01 -6.635000000000000273e-03 8.130500000000000227e-02 -5.983089999999999797e-01 -2.732199999999999906e-02 -1.021849999999999981e-01 3.741380000000000261e-01 -7.740999999999999617e-03 -9.365900000000000614e-02 3.797209999999999752e-01 -5.031100000000000155e-02 -3.927200000000000135e-02 3.667449999999999877e-01 -1.207100000000000013e-02 -8.113199999999999579e-02 3.732139999999999902e-01 -1.202359999999999957e-01 -1.389370000000000049e-01 2.304859999999999964e-01 -2.750299999999999967e-02 -1.065190000000000026e-01 2.754260000000000042e-01 2.671600000000000016e-02 -1.117159999999999959e-01 2.375160000000000049e-01 -4.721800000000000302e-02 -9.704500000000000626e-02 2.277679999999999982e-01 7.792999999999999580e-03 -1.347500000000000087e-02 2.657510000000000150e-01 5.141999999999999869e-03 -4.623999999999999638e-03 2.777419999999999889e-01 -1.913099999999999870e-02 -2.995899999999999952e-02 2.196529999999999871e-01 1.961800000000000002e-02 -2.924200000000000063e-02 3.139910000000000201e-01 4.518500000000000294e-02 9.667000000000000592e-02 -3.301339999999999830e-01 2.061599999999999891e-02 6.316099999999999492e-02 -3.323690000000000255e-01 1.932400000000000090e-02 9.823199999999999987e-02 -3.288780000000000037e-01 -4.911999999999999700e-03 1.129679999999999990e-01 -3.545079999999999898e-01
1.368300000000000072e-02 5.092300000000000298e-02 -5.129890000000000283e-01 4.825900000000000328e-02 1.593350000000000044e-01 -5.508089999999999931e-01 1.144999999999999967e-03 1.004889999999999950e-01 -4.669940000000000202e-01 5.387000000000000295e-03 9.680099999999999816e-02 -5.773669999999999636e-01 -4.475999999999999944e-03 -1.143939999999999957e-01 3.354480000000000239e-01 1.021999999999999905e-03 -8.523899999999999533e-02 3.472020000000000106e-01 -9.588900000000000201e-02 -1.108949999999999936e-01 2.779980000000000229e-01 -1.208599999999999952e-02 -5.304899999999999893e-02 3.466159999999999797e-01 -6.474199999999999400e-02 -1.354029999999999956e-01 2.629159999999999831e-01 -1.617100000000000135e-02 -9.942199999999999649e-02 2.560950000000000171e-01 2.752000000000000106e-03 -7.395999999999999797e-02 2.516920000000000268e-01 -8.945999999999999786e-02 -1.447450000000000125e-01 2.105710000000000082e-01 1.717999999999999909e-03 -3.585900000000000198e-02 1.959889999999999965e-01 3.619999999999999954e-03 1.260799999999999942e-02 2.810280000000000000e-01 -1.285400000000000084e-02 -2.027899999999999842e-02 1.786820000000000075e-01 3.086900000000000061e-02 -3.328400000000000108e-02 3.058199999999999807e-01 -3.325999999999999963e-03 9.641900000000000470e-02 -2.557320000000000149e-01 9.783999999999999295e-03 5.548299999999999760e-02 -2.868729999999999891e-01 8.775399999999999867e-02 1.381030000000000035e-01 -2.450970000000000093e-01 -4.294000000000000074e-03 1.297069999999999890e-01 -3.552150000000000030e-01
-4.576000000000000206e-03 2.011399999999999993e-02 -4.340339999999999754e-01 6.268500000000000461e-02 2.038780000000000037e-01 -5.164239999999999942e-01 -1.120799999999999921e-02 6.830500000000000460e-02 -4.900030000000000219e-01 1.710000000000000062e-02 1.110330000000000067e-01 -5.480650000000000244e-01 1.744199999999999917e-02 -1.262850000000000084e-01 2.986219999999999986e-01 9.440999999999999739e-03 -7.579800000000000426e-02 3.177519999999999789e-01 -1.440510000000000124e-01 -1.844520000000000048e-01 1.892419999999999936e-01 -1.246500000000000039e-02 -2.537000000000000019e-02 3.216820000000000235e-01 -1.046099999999999981e-02 -1.316990000000000105e-01 2.907649999999999957e-01 -5.098000000000000101e-03 -9.203899999999999582e-02 2.335669999999999968e-01 -2.044899999999999843e-02 -3.667499999999999927e-02 2.626740000000000186e-01 -1.318999999999999895e-01 -1.917550000000000088e-01 1.897349999999999870e-01 -4.514999999999999916e-03 -5.760799999999999949e-02 1.235490000000000060e-01 1.946999999999999946e-03 2.904100000000000084e-02 2.784050000000000136e-01 -6.238999999999999754e-03 -1.052999999999999943e-02 1.334140000000000048e-01 4.145000000000000073e-02 -3.739499999999999769e-02 2.914599999999999969e-01 -5.349299999999999888e-02 9.600100000000000300e-02 -1.810630000000000017e-01 -1.080999999999999930e-03 4.809100000000000180e-02 -2.422779999999999934e-01 1.618010000000000004e-01 1.808710000000000040e-01 -1.578320000000000001e-01 -3.935000000000000130e-03 1.457749999999999879e-01 -3.554709999999999814e-01
-2.382199999999999943e-02 -1.050399999999999945e-02 -3.582020000000000204e-01 7.790400000000000102e-02 2.485680000000000112e-01 -4.818399999999999905e-01 -2.284900000000000125e-02 3.691400000000000237e-02 -5.129899999999999460e-01 2.882900000000000046e-02 1.253920000000000035e-01 -5.191919999999999868e-01 4.013900000000000107e-02 -1.378280000000000061e-01 2.580770000000000008e-01 1.879199999999999968e-02 -6.795600000000000251e-02 2.838950000000000085e-01 -1.965969999999999940e-01 -2.634329999999999727e-01 9.159899999999999987e-02 -1.242700000000000055e-02 3.167000000000000110e-03 2.927379999999999982e-01 4.324599999999999972e-02 -1.283860000000000001e-01 3.168440000000000145e-01 5.982999999999999603e-03 -8.395199999999999885e-02 2.104989999999999917e-01 -4.325299999999999978e-02 1.420000000000000038e-03 2.727499999999999925e-01 -1.756030000000000091e-01 -2.387849999999999973e-01 1.676499999999999935e-01 -1.081200000000000043e-02 -8.013099999999999390e-02 5.311400000000000149e-02 -5.379999999999999583e-04 4.514900000000000163e-02 2.746049999999999880e-01 6.359999999999999551e-04 -5.090000000000000123e-04 8.776100000000000567e-02 5.236199999999999882e-02 -4.159999999999999809e-02 2.764820000000000055e-01 -1.059709999999999958e-01 9.569999999999999341e-02 -1.022070000000000062e-01 -1.219199999999999971e-02 4.078699999999999687e-02 -1.944259999999999877e-01 2.429310000000000080e-01 2.274319999999999953e-01 -6.352599999999999913e-02 -3.481999999999999852e-03 1.616839999999999944e-01 -3.523299999999999765e-01
-4.367399999999999755e-02 -4.123199999999999782e-02 -2.793519999999999892e-01 9.365999999999999326e-02 2.930539999999999812e-01 -4.409529999999999839e-01 -3.383300000000000196e-02 5.875000000000000014e-03 -5.303039999999999976e-01 4.057700000000000196e-02 1.397509999999999863e-01 -4.845999999999999752e-01 6.336100000000000065e-02 -1.487650000000000083e-01 2.172939999999999872e-01 2.866199999999999998e-02 -6.040000000000000230e-02 2.495590000000000031e-01 -2.532300000000000106e-01 -3.463579999999999992e-01 -9.551999999999999727e-03 -1.258699999999999923e-02 3.248999999999999805e-02 2.633440000000000225e-01 9.557899999999999729e-02 -1.253249999999999920e-01 3.394300000000000095e-01 1.677199999999999872e-02 -7.547500000000000042e-02 1.856399999999999995e-01 -6.515300000000000258e-02 3.928999999999999854e-02 2.804309999999999858e-01 -2.195900000000000074e-01 -2.850130000000000163e-01 1.430629999999999957e-01 -1.713299999999999892e-02 -1.024950000000000028e-01 -1.731500000000000053e-02 -3.373000000000000130e-03 6.055399999999999672e-02 2.667059999999999986e-01 7.792999999999999580e-03 9.570000000000000381e-03 3.960199999999999831e-02 6.293999999999999595e-02 -4.589300000000000324e-02 2.576510000000000189e-01 -1.600129999999999886e-01 9.528100000000000458e-02 -2.215400000000000008e-02 -2.332899999999999904e-02 3.373999999999999916e-02 -1.463909999999999934e-01 3.303249999999999797e-01 2.770790000000000197e-01 3.498899999999999927e-02 -3.237999999999999993e-03 1.770349999999999979e-01 -3.478919999999999790e-01
-6.392000000000000459e-02 -7.166100000000000247e-02 -1.992639999999999967e-01 1.101020000000000054e-01 3.366500000000000048e-01 -3.946740000000000248e-01 -4.397899999999999726e-02 -2.460499999999999840e-02 -5.422259999999999858e-01 5.224100000000000271e-02 1.527789999999999981e-01 -4.456280000000000241e-01 8.635600000000000220e-02 -1.590920000000000112e-01 1.754769999999999941e-01 3.802699999999999830e-02 -5.275699999999999834e-02 2.151980000000000004e-01 -3.137170000000000236e-01 -4.322159999999999891e-01 -1.147799999999999931e-01 -1.240999999999999916e-02 6.220300000000000135e-02 2.326370000000000104e-01 1.470110000000000028e-01 -1.226099999999999968e-01 3.584809999999999941e-01 2.743100000000000052e-02 -6.637400000000000244e-02 1.586609999999999965e-01 -8.639900000000000357e-02 7.761099999999999943e-02 2.854140000000000010e-01 -2.644580000000000264e-01 -3.308539999999999814e-01 1.157929999999999932e-01 -2.344200000000000103e-02 -1.254879999999999884e-01 -8.760700000000000431e-02 -6.947000000000000050e-03 7.551199999999999579e-02 2.551229999999999887e-01 1.530100000000000036e-02 1.991400000000000114e-02 -1.114200000000000086e-02 7.377100000000000324e-02 -5.024499999999999800e-02 2.355919999999999959e-01 -2.159220000000000028e-01 9.478300000000000614e-02 6.021200000000000163e-02 -3.474599999999999911e-02 2.688199999999999965e-02 -9.679999999999999716e-02 4.246889999999999832e-01 3.303130000000000233e-01 1.387770000000000115e-01 -2.954000000000000029e-03 1.920650000000000135e-01 -3.413200000000000123e-01
-8.463199999999999890e-02 -1.016959999999999947e-01 -1.199780000000000013e-01 1.268479999999999885e-01 3.794969999999999732e-01 -3.454840000000000133e-01 -5.365899999999999836e-02 -5.419899999999999718e-02 -5.506990000000000496e-01 6.364699999999999525e-02 1.657629999999999937e-01 -4.045079999999999787e-01 1.091789999999999983e-01 -1.686890000000000056e-01 1.325379999999999892e-01 4.735199999999999826e-02 -4.520600000000000313e-02 1.797219999999999929e-01 -3.779580000000000162e-01 -5.207979999999999832e-01 -2.243709999999999871e-01 -1.233399999999999948e-02 9.223000000000000642e-02 2.002220000000000111e-01 1.967349999999999932e-01 -1.204350000000000004e-01 3.753730000000000122e-01 3.776899999999999702e-02 -5.700500000000000012e-02 1.313840000000000008e-01 -1.065330000000000027e-01 1.155599999999999961e-01 2.890960000000000196e-01 -3.092980000000000174e-01 -3.756079999999999974e-01 8.739700000000000246e-02 -2.977700000000000138e-02 -1.483929999999999971e-01 -1.541069999999999940e-01 -1.083699999999999941e-02 8.976299999999999557e-02 2.423829999999999874e-01 2.303099999999999939e-02 3.023999999999999952e-02 -6.120099999999999846e-02 8.441899999999999404e-02 -5.469899999999999762e-02 2.131000000000000116e-01 -2.728240000000000109e-01 9.420699999999999907e-02 1.433619999999999894e-01 -4.601199999999999735e-02 2.038999999999999840e-02 -4.678199999999999720e-02 5.246480000000000032e-01 3.863159999999999927e-01 2.463069999999999982e-01 -2.804000000000000069e-03 2.067450000000000121e-01 -3.333249999999999824e-01
-1.059070000000000011e-01 -1.314980000000000038e-01 -4.113699999999999996e-02 1.440859999999999919e-01 4.215340000000000198e-01 -2.930570000000000119e-01 -6.275500000000000522e-02 -8.338800000000000379e-02 -5.549579999999999513e-01 7.490199999999999636e-02 1.781719999999999970e-01 -3.601659999999999862e-01 1.318429999999999880e-01 -1.774199999999999944e-01 8.934400000000000674e-02 5.681100000000000039e-02 -3.815799999999999748e-02 1.439549999999999996e-01 -4.462789999999999813e-01 -6.124279999999999724e-01 -3.375879999999999992e-01 -1.216099999999999993e-02 1.224760000000000015e-01 1.672059999999999935e-01 2.452479999999999938e-01 -1.185250000000000054e-01 3.895060000000000189e-01 4.785999999999999976e-02 -4.706199999999999967e-02 1.032379999999999964e-01 -1.258730000000000127e-01 1.536049999999999915e-01 2.910530000000000062e-01 -3.542890000000000206e-01 -4.193899999999999850e-01 5.781300000000000328e-02 -3.605799999999999977e-02 -1.713480000000000003e-01 -2.196420000000000039e-01 -1.520600000000000077e-02 1.032880000000000048e-01 2.268739999999999923e-01 3.103200000000000056e-02 4.064899999999999763e-02 -1.127989999999999965e-01 9.497400000000000286e-02 -5.919300000000000256e-02 1.879490000000000050e-01 -3.309770000000000212e-01 9.335799999999999654e-02 2.269220000000000126e-01 -5.740300000000000263e-02 1.418400000000000043e-02 3.906000000000000184e-03 6.304629999999999956e-01 4.451620000000000021e-01 3.569559999999999955e-01 -2.902000000000000066e-03 2.208700000000000108e-01 -3.236649999999999805e-01
-1.272189999999999988e-01 -1.608300000000000007e-01 3.759099999999999941e-02 1.613860000000000017e-01 4.621350000000000180e-01 -2.367309999999999970e-01 -7.119799999999999740e-02 -1.117419999999999941e-01 -5.543090000000000517e-01 8.578800000000000314e-02 1.900840000000000030e-01 -3.124350000000000183e-01 1.538950000000000040e-01 -1.853970000000000062e-01 4.768300000000000316e-02 6.623800000000000521e-02 -3.205100000000000310e-02 1.090259999999999979e-01 -5.173400000000000221e-01 -7.054679999999999840e-01 -4.512039999999999940e-01 -1.208599999999999952e-02 1.525920000000000054e-01 1.347669999999999979e-01 2.921090000000000075e-01 -1.170770000000000005e-01 4.000319999999999987e-01 5.748199999999999837e-02 -3.681799999999999656e-02 7.316999999999999893e-02 -1.441280000000000061e-01 1.914420000000000011e-01 2.901320000000000010e-01 -3.987930000000000086e-01 -4.617049999999999765e-01 2.587899999999999923e-02 -4.231399999999999745e-02 -1.943189999999999917e-01 -2.839749999999999774e-01 -2.013799999999999965e-02 1.162279999999999980e-01 2.071939999999999893e-01 3.928299999999999847e-02 5.108900000000000247e-02 -1.662710000000000021e-01 1.055549999999999961e-01 -6.374199999999999311e-02 1.595969999999999889e-01 -3.898010000000000086e-01 9.223099999999999354e-02 3.104029999999999845e-01 -6.882499999999999729e-02 8.222000000000000142e-03 5.464999999999999719e-02 7.410660000000000025e-01 5.063149999999999595e-01 4.700989999999999891e-01 -3.137000000000000031e-03 2.345450000000000035e-01 -3.128440000000000110e-01
-1.486740000000000006e-01 -1.896829999999999905e-01 1.148860000000000020e-01 1.788279999999999870e-01 5.016990000000000061e-01 -1.783170000000000033e-01 -7.911899999999999489e-02 -1.395089999999999941e-01 -5.500859999999999639e-01 9.622699999999999310e-02 2.015869999999999884e-01 -2.626189999999999913e-01 1.754300000000000026e-01 -1.924889999999999934e-01 6.140999999999999757e-03 7.551599999999999979e-02 -2.691899999999999848e-02 7.393199999999999772e-02 -5.909290000000000376e-01 -7.993989999999999707e-01 -5.662740000000000551e-01 -1.191000000000000045e-02 1.825539999999999941e-01 1.018249999999999988e-01 3.371890000000000165e-01 -1.161049999999999999e-01 4.081520000000000148e-01 6.672899999999999665e-02 -2.624999999999999903e-02 4.275999999999999940e-02 -1.613219999999999932e-01 2.289210000000000134e-01 2.874800000000000133e-01 -4.426990000000000092e-01 -5.024180000000000312e-01 -6.814999999999999877e-03 -4.842500000000000276e-02 -2.170479999999999909e-01 -3.454820000000000113e-01 -2.537999999999999978e-02 1.284639999999999949e-01 1.858809999999999907e-01 4.774799999999999878e-02 6.141499999999999737e-02 -2.195910000000000084e-01 1.160640000000000005e-01 -6.835099999999999509e-02 1.301879999999999982e-01 -4.486769999999999925e-01 9.077599999999999558e-02 3.931089999999999862e-01 -8.015999999999999515e-02 2.621000000000000066e-03 1.053339999999999971e-01 8.550579999999999847e-01 5.689769999999999550e-01 5.840009999999999923e-01 -3.497999999999999807e-03 2.477360000000000118e-01 -3.011550000000000060e-01
-1.701449999999999907e-01 -2.180030000000000023e-01 1.914230000000000098e-01 1.959799999999999875e-01 5.397269999999999568e-01 -1.180429999999999952e-01 -8.662499999999999367e-02 -1.665999999999999981e-01 -5.421350000000000335e-01 1.062450000000000061e-01 2.126180000000000014e-01 -2.109290000000000054e-01 1.965610000000000135e-01 -1.986400000000000110e-01 -3.368100000000000260e-02 8.480699999999999350e-02 -2.275599999999999845e-02 4.008400000000000157e-02 -6.661770000000000191e-01 -8.932550000000000212e-01 -6.799429999999999641e-01 -1.195000000000000055e-02 2.121190000000000020e-01 6.969799999999999607e-02 3.804299999999999904e-01 -1.155439999999999939e-01 4.131819999999999937e-01 7.551399999999999779e-02 -1.543199999999999954e-02 1.125300000000000085e-02 -1.773369999999999946e-01 2.659860000000000002e-01 2.823689999999999811e-01 -4.855679999999999996e-01 -5.412620000000000209e-01 -4.078999999999999987e-02 -5.442700000000000315e-02 -2.394239999999999979e-01 -4.055010000000000003e-01 -3.098599999999999965e-02 1.399940000000000073e-01 1.614649999999999974e-01 5.644600000000000312e-02 7.161900000000000210e-02 -2.740389999999999771e-01 1.264550000000000118e-01 -7.301399999999999557e-02 9.841900000000000648e-02 -5.073029999999999484e-01 8.898999999999999966e-02 4.740340000000000109e-01 -9.140900000000000414e-02 -2.635999999999999888e-03 1.548579999999999957e-01 9.712889999999999580e-01 6.325380000000000447e-01 6.969490000000000407e-01 -4.066000000000000170e-03 2.604299999999999948e-01 -2.893140000000000156e-01
-1.918390000000000095e-01 -2.457590000000000052e-01 2.667490000000000139e-01 2.129129999999999912e-01 5.760399999999999965e-01 -5.641399999999999887e-02 -9.371100000000000263e-02 -1.932850000000000124e-01 -5.307490000000000263e-01 1.158900000000000069e-01 2.223970000000000113e-01 -1.576039999999999941e-01 2.168950000000000045e-01 -2.035460000000000047e-01 -7.421400000000000219e-02 9.395199999999999385e-02 -1.959699999999999984e-02 4.947000000000000008e-03 -7.421170000000000266e-01 -9.863089999999999913e-01 -7.942510000000000403e-01 -1.181699999999999938e-02 2.412350000000000050e-01 3.605300000000000171e-02 4.220030000000000170e-01 -1.154219999999999968e-01 4.152150000000000007e-01 8.387899999999999523e-02 -4.223000000000000191e-03 -2.124200000000000046e-02 -1.922909999999999897e-01 3.032190000000000163e-01 2.745589999999999975e-01 -5.277079999999999549e-01 -5.784190000000000165e-01 -7.585500000000000576e-02 -6.013099999999999695e-02 -2.620199999999999751e-01 -4.628760000000000097e-01 -3.726700000000000151e-02 1.509800000000000031e-01 1.353759999999999963e-01 6.537099999999999855e-02 8.165100000000000136e-02 -3.282430000000000070e-01 1.370830000000000104e-01 -7.764200000000000268e-02 6.594400000000000261e-02 -5.654529999999999834e-01 8.671399999999999941e-02 5.545250000000000457e-01 -1.027689999999999992e-01 -7.584999999999999729e-03 2.046530000000000016e-01 1.088634000000000102e+00 6.963430000000000453e-01 8.091810000000000391e-01 -4.570000000000000277e-03 2.725310000000000232e-01 -2.763100000000000001e-01
-2.134600000000000108e-01 -2.728920000000000234e-01 3.388650000000000273e-01 2.291849999999999998e-01 6.108360000000000456e-01 3.621999999999999786e-03 -1.004919999999999980e-01 -2.194899999999999907e-01 -5.185790000000000122e-01 1.252520000000000022e-01 2.320180000000000020e-01 -1.049719999999999959e-01 2.364410000000000123e-01 -2.073879999999999890e-01 -1.137340000000000018e-01 1.034790000000000015e-01 -1.738699999999999968e-02 -3.055000000000000077e-02 -8.169049999999999923e-01 -1.077096000000000053e+00 -9.064050000000000162e-01 -1.186800000000000008e-02 2.698849999999999860e-01 2.263999999999999953e-03 4.616310000000000136e-01 -1.155599999999999961e-01 4.180400000000000227e-01 9.163300000000000611e-02 6.838999999999999593e-03 -5.118600000000000233e-02 -2.058510000000000062e-01 3.390569999999999973e-01 2.683099999999999929e-01 -5.674120000000000275e-01 -6.131640000000000423e-01 -1.080480000000000051e-01 -6.593899999999999761e-02 -2.832970000000000210e-01 -5.146739999999999648e-01 -4.358299999999999674e-02 1.609909999999999952e-01 1.111720000000000069e-01 7.439300000000000079e-02 9.143099999999999838e-02 -3.782940000000000191e-01 1.470720000000000083e-01 -8.224700000000000066e-02 3.580300000000000149e-02 -6.224169999999999980e-01 8.419999999999999707e-02 6.342480000000000340e-01 -1.137019999999999975e-01 -1.205799999999999927e-02 2.546059999999999990e-01 1.204039000000000081e+00 7.588120000000000420e-01 9.197640000000000260e-01 -5.779000000000000282e-03 2.841480000000000117e-01 -2.614230000000000165e-01
-2.346719999999999917e-01 -2.991360000000000130e-01 4.124450000000000061e-01 2.446689999999999976e-01 6.432560000000000500e-01 6.691400000000000126e-02 -1.066560000000000008e-01 -2.449119999999999908e-01 -4.998520000000000185e-01 1.341539999999999955e-01 2.402320000000000011e-01 -4.824799999999999922e-02 2.548239999999999950e-01 -2.099650000000000127e-01 -1.489409999999999901e-01 1.128030000000000005e-01 -1.653900000000000162e-02 -6.241300000000000320e-02 -8.889550000000000507e-01 -1.164163999999999977e+00 -1.011077999999999921e+00 -1.205799999999999927e-02 2.975700000000000012e-01 -2.836699999999999985e-02 4.991579999999999906e-01 -1.161429999999999962e-01 4.159220000000000139e-01 9.889699999999999880e-02 1.829499999999999876e-02 -8.376599999999999324e-02 -2.182270000000000043e-01 3.746320000000000205e-01 2.573810000000000264e-01 -6.054270000000000485e-01 -6.452790000000000470e-01 -1.427219999999999878e-01 -7.123400000000000565e-02 -3.045430000000000081e-01 -5.673939999999999539e-01 -5.019200000000000050e-02 1.705979999999999996e-01 8.180099999999999871e-02 8.367499999999999938e-02 1.007949999999999957e-01 -4.310430000000000095e-01 1.571609999999999951e-01 -8.676499999999999491e-02 1.420999999999999954e-03 -6.778440000000000021e-01 8.110799999999999954e-02 7.098210000000000353e-01 -1.245490000000000069e-01 -1.623799999999999896e-02 3.019609999999999794e-01 1.316186000000000078e+00 8.193120000000000402e-01 1.023811999999999944e+00 -6.995000000000000349e-03 2.951719999999999899e-01 -2.482129999999999892e-01
-2.561910000000000021e-01 -3.250600000000000156e-01 4.732180000000000275e-01 2.593679999999999874e-01 6.748250000000000082e-01 1.178799999999999987e-01 -1.130130000000000023e-01 -2.705589999999999939e-01 -4.915780000000000149e-01 1.430599999999999927e-01 2.486480000000000079e-01 -2.699000000000000010e-03 2.725350000000000272e-01 -2.115670000000000051e-01 -1.956809999999999938e-01 1.232509999999999994e-01 -1.620800000000000018e-02 -1.062810000000000005e-01 -9.560269999999999602e-01 -1.246328000000000102e+00 -1.121664999999999912e+00 -1.247200000000000045e-02 3.248269999999999769e-01 -7.088500000000000356e-02 5.350240000000000551e-01 -1.162789999999999935e-01 4.188009999999999788e-01 1.057779999999999970e-01 2.910499999999999893e-02 -1.095430000000000015e-01 -2.294279999999999931e-01 4.110940000000000150e-01 2.514549999999999841e-01 -6.416610000000000369e-01 -6.759349999999999525e-01 -1.701209999999999944e-01 -7.657200000000000117e-02 -3.258630000000000138e-01 -6.049499999999999877e-01 -5.824200000000000210e-02 1.788740000000000052e-01 6.366099999999999537e-02 9.324999999999999956e-02 1.102130000000000054e-01 -4.707160000000000233e-01 1.677109999999999990e-01 -9.082600000000000395e-02 -1.962399999999999908e-02 -7.300100000000000477e-01 7.744900000000000395e-02 7.886530000000000484e-01 -1.355079999999999896e-01 -1.981300000000000075e-02 3.547339999999999938e-01 1.421221999999999985e+00 8.759559999999999569e-01 1.127931000000000017e+00 -7.542000000000000093e-03 3.052770000000000206e-01 -2.287790000000000101e-01
-2.765230000000000188e-01 -3.495409999999999906e-01 5.458979999999999944e-01 2.725609999999999977e-01 7.025730000000000031e-01 1.814969999999999917e-01 -1.189150000000000068e-01 -2.948749999999999982e-01 -4.651199999999999779e-01 1.509079999999999866e-01 2.556749999999999856e-01 5.731200000000000183e-02 2.892040000000000166e-01 -2.110360000000000014e-01 -2.221980000000000066e-01 1.337250000000000105e-01 -1.852600000000000080e-02 -1.312530000000000086e-01 -1.017719999999999958e+00 -1.322529000000000066e+00 -1.207281999999999966e+00 -1.302299999999999985e-02 3.503939999999999833e-01 -9.536400000000000432e-02 5.689229999999999565e-01 -1.178809999999999997e-01 4.108129999999999837e-01 1.118220000000000047e-01 4.112400000000000083e-02 -1.441379999999999884e-01 -2.394229999999999969e-01 4.449690000000000034e-01 2.351890000000000092e-01 -6.749169999999999892e-01 -7.026970000000000161e-01 -2.057789999999999897e-01 -8.101500000000000368e-02 -3.461259999999999892e-01 -6.576560000000000183e-01 -6.521799999999999820e-02 1.876780000000000115e-01 2.864200000000000079e-02 1.028450000000000059e-01 1.186979999999999980e-01 -5.252019999999999467e-01 1.774650000000000116e-01 -9.542599999999999694e-02 -5.937400000000000316e-02 -7.821430000000000327e-01 7.318800000000000305e-02 8.569219999999999615e-01 -1.459199999999999942e-01 -2.335800000000000029e-02 3.981140000000000234e-01 1.521903999999999924e+00 9.300859999999999683e-01 1.217381000000000046e+00 -9.740000000000000394e-03 3.154680000000000262e-01 -2.174119999999999941e-01
-2.965889999999999915e-01 -3.734569999999999834e-01 6.083509999999999751e-01 2.844439999999999746e-01 7.287810000000000121e-01 2.352029999999999954e-01 -1.246710000000000040e-01 -3.192590000000000150e-01 -4.453079999999999816e-01 1.585110000000000130e-01 2.625709999999999988e-01 1.094090000000000062e-01 3.048339999999999939e-01 -2.096679999999999933e-01 -2.573679999999999857e-01 1.443949999999999956e-01 -2.214700000000000002e-02 -1.646960000000000091e-01 -1.070478999999999958e+00 -1.390584000000000042e+00 -1.293508000000000102e+00 -1.362900000000000049e-02 3.751590000000000202e-01 -1.292240000000000055e-01 6.008489999999999664e-01 -1.190729999999999983e-01 4.073109999999999786e-01 1.173980000000000024e-01 5.253399999999999737e-02 -1.723689999999999944e-01 -2.481760000000000077e-01 4.793640000000000123e-01 2.233199999999999907e-01 -7.051870000000000083e-01 -7.270860000000000101e-01 -2.343320000000000125e-01 -8.529599999999999682e-02 -3.660229999999999873e-01 -6.979279999999999928e-01 -7.322399999999999742e-02 1.952830000000000121e-01 2.403000000000000188e-03 1.127459999999999990e-01 1.269200000000000050e-01 -5.682880000000000154e-01 1.874669999999999948e-01 -9.947100000000000386e-02 -8.819200000000000650e-02 -8.299469999999999903e-01 6.836000000000000409e-02 9.273209999999999509e-01 -1.561009999999999898e-01 -2.627099999999999921e-02 4.459919999999999995e-01 1.610168999999999961e+00 9.777080000000000215e-01 1.302964000000000011e+00 -1.164800000000000037e-02 3.246499999999999941e-01 -2.007760000000000100e-01
-3.160359999999999836e-01 -3.965170000000000083e-01 6.671230000000000215e-01 2.944700000000000095e-01 7.526080000000000547e-01 2.848589999999999733e-01 -1.303429999999999866e-01 -3.433229999999999893e-01 -4.250309999999999921e-01 1.656310000000000004e-01 2.686439999999999939e-01 1.596539999999999904e-01 3.194569999999999910e-01 -2.068290000000000128e-01 -2.920329999999999870e-01 1.547739999999999949e-01 -2.733899999999999872e-02 -1.973660000000000136e-01 -1.113118999999999970e+00 -1.449349999999999916e+00 -1.370772000000000101e+00 -1.445699999999999937e-02 3.985400000000000054e-01 -1.637450000000000017e-01 6.307810000000000361e-01 -1.203319999999999945e-01 4.010750000000000148e-01 1.224650000000000044e-01 6.384399999999999797e-02 -2.013369999999999882e-01 -2.558909999999999796e-01 5.133320000000000105e-01 2.086169999999999969e-01 -7.324669999999999792e-01 -7.486380000000000257e-01 -2.626470000000000193e-01 -8.896900000000000641e-02 -3.858289999999999775e-01 -7.369390000000000107e-01 -8.191700000000000370e-02 2.024690000000000101e-01 -2.543300000000000075e-02 1.227489999999999970e-01 1.347250000000000114e-01 -6.106430000000000469e-01 1.976880000000000026e-01 -1.033860000000000057e-01 -1.176859999999999989e-01 -8.747850000000000348e-01 6.287600000000000133e-02 9.938930000000000264e-01 -1.663159999999999916e-01 -2.904899999999999843e-02 4.923699999999999743e-01 1.686247000000000051e+00 1.018912999999999958e+00 1.377780999999999922e+00 -1.353399999999999916e-02 3.332820000000000227e-01 -1.851859999999999895e-01
-3.348079999999999945e-01 -4.188140000000000196e-01 7.197210000000000552e-01 3.027039999999999731e-01 7.741810000000000080e-01 3.274250000000000216e-01 -1.359200000000000130e-01 -3.675430000000000086e-01 -4.076460000000000083e-01 1.726630000000000109e-01 2.743289999999999895e-01 2.053149999999999975e-01 3.333400000000000252e-01 -2.020470000000000044e-01 -3.297760000000000136e-01 1.658779999999999977e-01 -3.363399999999999723e-02 -2.342640000000000000e-01 -1.143124999999999947e+00 -1.496919000000000111e+00 -1.440214000000000105e+00 -1.586299999999999863e-02 4.203419999999999934e-01 -2.022569999999999923e-01 6.591120000000000312e-01 -1.215949999999999948e-01 3.973280000000000145e-01 1.270570000000000033e-01 7.496899999999999398e-02 -2.258509999999999962e-01 -2.624960000000000071e-01 5.473540000000000072e-01 1.962399999999999978e-01 -7.561980000000000368e-01 -7.673109999999999653e-01 -2.853220000000000200e-01 -9.207799999999999319e-02 -4.052680000000000171e-01 -7.670989999999999753e-01 -9.133099999999999552e-02 2.087880000000000014e-01 -4.632000000000000006e-02 1.330000000000000071e-01 1.420889999999999931e-01 -6.439489999999999936e-01 2.080369999999999997e-01 -1.068130000000000052e-01 -1.393919999999999881e-01 -9.150599999999999845e-01 5.681900000000000145e-02 1.060551999999999939e+00 -1.760940000000000005e-01 -3.113300000000000095e-02 5.413710000000000466e-01 1.746069000000000093e+00 1.051608000000000098e+00 1.444179000000000102e+00 -1.550200000000000015e-02 3.410429999999999851e-01 -1.663439999999999919e-01