3.752753538391568444e+00 -1.113837282131486583e+00 5.147083407450369075e-01 -1.113837282131486583e+00 1.343061586553959019e+00 1.290511855343090541e+00 5.147083407450369075e-01 1.290511855343090541e+00 1.365362927744333266e-01
3.914360755043595930e+00 -1.117929650579766454e+00 5.293829952817986628e-01 -1.117929650579766454e+00 1.430737480279230978e+00 1.362696687694696429e+00 5.293829952817986628e-01 1.362696687694696429e+00 1.525233988084969683e-01
4.210571757147257621e+00 -1.117133912270378726e+00 5.538441975976541309e-01 -1.117133912270378726e+00 1.641845820333433625e+00 1.434302801275838535e+00 5.538441975976541309e-01 1.434302801275838535e+00 2.734549533079231876e-01
4.494753676236279638e+00 -1.110974691070442333e+00 5.882986329677692972e-01 -1.110974691070442333e+00 1.827211509365753495e+00 1.507324708991865325e+00 5.882986329677692972e-01 1.507324708991865325e+00 3.613375323083607427e-01
4.810796130492086320e+00 -1.099348644342374115e+00 6.325912874357696447e-01 -1.099348644342374115e+00 2.030651825711310199e+00 1.580646310356882411e+00 6.325912874357696447e-01 1.580646310356882411e+00 4.434122550766433357e-01
5.181176143588944072e+00 -1.081439365249269757e+00 6.861021051761584388e-01 -1.081439365249269757e+00 2.274974489484633988e+00 1.654701644448737463e+00 6.861021051761584388e-01 1.654701644448737463e+00 5.506922471513778783e-01
5.550770752640172390e+00 -1.058569639552189745e+00 7.462165174580899230e-01 -1.058569639552189745e+00 2.508301496619144366e+00 1.729201351882198701e+00 7.462165174580899230e-01 1.729201351882198701e+00 6.710140800890654900e-01
5.952721941518585247e+00 -1.028992976675984217e+00 8.182463358533215159e-01 -1.028992976675984217e+00 2.758380345305832204e+00 1.803515042568010873e+00 8.182463358533215159e-01 1.803515042568010873e+00 7.288239515528998069e-01
6.402159072366307768e+00 -9.981865364125429574e-01 8.925910293304085696e-01 -9.981865364125429574e-01 3.049568895222968479e+00 1.873953384344466899e+00 8.925910293304085696e-01 1.873953384344466899e+00 8.577645604649951627e-01
6.878186263864091821e+00 -9.635874213498119012e-01 9.730742754799155403e-01 -9.635874213498119012e-01 3.358098339726503845e+00 1.942252533522958347e+00 9.730742754799155403e-01 1.942252533522958347e+00 9.781690675127490131e-01
7.368857107107363191e+00 -9.265700885676425580e-01 1.057205516736096529e+00 -9.265700885676425580e-01 3.675298231523238535e+00 2.007079370078666880e+00 1.057205516736096529e+00 2.007079370078666880e+00 1.095266610157852094e+00
7.844522599373607186e+00 -8.891807222901751961e-01 1.142277175994280913e+00 -8.891807222901751961e-01 3.976604025659733921e+00 2.066449715370002327e+00 1.142277175994280913e+00 2.066449715370002327e+00 1.197493147254786505e+00
8.304366333825919710e+00 -8.541785709408711291e-01 1.225881369798789366e+00 -8.541785709408711291e-01 4.263648535809799967e+00 2.119195797592277941e+00 1.225881369798789366e+00 2.119195797592277941e+00 1.296268040256454146e+00
8.805144087024791233e+00 -8.212019352881904100e-01 1.308297123271095597e+00 -8.212019352881904100e-01 4.587069654389019924e+00 2.165090262942812149e+00 1.308297123271095597e+00 2.165090262942812149e+00 1.399290315662776285e+00
9.219207033027911891e+00 -7.925346876227137294e-01 1.377795047045547783e+00 -7.925346876227137294e-01 4.876387702565907034e+00 2.193860853245871656e+00 1.377795047045547783e+00 2.193860853245871656e+00 1.552919480693409460e+00
9.808311738568825433e+00 -7.671330673048544213e-01 1.453855228306509817e+00 -7.671330673048544213e-01 5.274484211062480554e+00 2.234763869201155106e+00 1.453855228306509817e+00 2.234763869201155106e+00 1.635655596342222129e+00
1.025515496921322089e+01 -7.514249863922644046e-01 1.511727105352894007e+00 -7.514249863922644046e-01 5.582021566245219724e+00 2.252941839151974879e+00 1.511727105352894007e+00 2.252941839151974879e+00 1.737778790801573603e+00
1.068682750066045450e+01 -7.442013360252247578e-01 1.557301208526921554e+00 -7.442013360252247578e-01 5.895439117506422910e+00 2.259132063143186375e+00 1.557301208526921554e+00 2.259132063143186375e+00 1.829547052975125432e+00
1.102860227167438545e+01 -7.512699724358902209e-01 1.583643246846784258e+00 -7.512699724358902209e-01 6.145001253005196951e+00 2.250750975235218831e+00 1.583643246846784258e+00 2.250750975235218831e+00 1.907457067448820043e+00
1.141281986394358583e+01 -7.682181649994741512e-01 1.595930686455382830e+00 -7.682181649994741512e-01 6.456548302526150529e+00 2.228160274659612305e+00 1.595930686455382830e+00 2.228160274659612305e+00 1.960957550925450432e+00
1.178442965442767765e+01 -7.996549953521706611e-01 1.580935669742114413e+00 -7.996549953521706611e-01 6.808429983495682514e+00 2.182451826056727384e+00 1.580935669742114413e+00 2.182451826056727384e+00 2.071048462742437923e+00
1.200312334408046056e+01 -8.440716609852704222e-01 1.552568115725627917e+00 -8.440716609852704222e-01 7.040630555880539987e+00 2.120311898078172330e+00 1.552568115725627917e+00 2.120311898078172330e+00 2.070283727224325077e+00
1.219422454949862633e+01 -9.085057955181641276e-01 1.497527826949013097e+00 -9.085057955181641276e-01 7.279062689311642131e+00 2.042660240198435062e+00 1.497527826949013097e+00 2.042660240198435062e+00 2.102392284721310123e+00
1.232988242985360650e+01 -9.873045566750711100e-01 1.421054275137719758e+00 -9.873045566750711100e-01 7.491266461324223691e+00 1.948060389755113420e+00 1.421054275137719758e+00 1.948060389755113420e+00 2.085506097740275955e+00
1.240361740176895644e+01 -1.083609560638509217e+00 1.319726818987756234e+00 -1.083609560638509217e+00 7.689343294779231286e+00 1.832719671948918272e+00 1.319726818987756234e+00 1.832719671948918272e+00 2.070955454368613058e+00
1.245102066962819798e+01 -1.192791057244767750e+00 1.198051197497733700e+00 -1.192791057244767750e+00 7.901195701824029527e+00 1.697113462912730464e+00 1.198051197497733700e+00 1.697113462912730464e+00 2.031902271626062628e+00
1.239819191329585735e+01 -1.317587626389791655e+00 1.049537493027450585e+00 -1.317587626389791655e+00 8.064146372764634307e+00 1.542171846384795098e+00 1.049537493027450585e+00 1.542171846384795098e+00 2.023572855036886331e+00
1.227370537206357959e+01 -1.454247930329324534e+00 8.844579637526398530e-01 -1.454247930329324534e+00 8.193283332688137577e+00 1.368545880981884455e+00 8.844579637526398530e-01 1.368545880981884455e+00 1.954271282273841503e+00
1.208908375002185664e+01 -1.598524586658711888e+00 7.035360081363816187e-01 -1.598524586658711888e+00 8.294755468530716769e+00 1.178912141017393722e+00 7.035360081363816187e-01 1.178912141017393722e+00 1.874377089158556497e+00
1.191412466459412833e+01 -1.752288097118202659e+00 5.078463896095370966e-01 -1.752288097118202659e+00 8.438887445167488011e+00 9.744383982960088675e-01 5.078463896095370966e-01 9.744383982960088675e-01 1.827376857585885972e+00
1.162622241055212591e+01 -1.903509378693155840e+00 3.066072714444946223e-01 -1.903509378693155840e+00 8.491747204291105078e+00 7.577392215485753146e-01 3.066072714444946223e-01 7.577392215485753146e-01 1.741922830568644942e+00
1.128959410288981857e+01 -2.050472943599696674e+00 1.030222754063219864e-01 -2.050472943599696674e+00 8.513500829502291367e+00 5.317288731549288938e-01 1.030222754063219864e-01 5.317288731549288938e-01 1.650888301121931079e+00
1.091585545407151869e+01 -2.189355114247260037e+00 -9.902291533186650951e-02 -2.189355114247260037e+00 8.504799379417816496e+00 3.015331479391777370e-01 -9.902291533186650951e-02 3.015331479391777370e-01 1.558820345299388954e+00
1.053402507673048483e+01 -2.314885416119122130e+00 -2.906615024654641832e-01 -2.314885416119122130e+00 8.482126004732144509e+00 7.369363486031518806e-02 -2.906615024654641832e-01 7.369363486031518806e-02 1.466132333651349651e+00
1.012997603230913946e+01 -2.425420701277715807e+00 -4.716247951367555924e-01 -2.425420701277715807e+00 8.427798780154851954e+00 -1.486480498991408772e-01 -4.716247951367555924e-01 -1.486480498991408772e-01 1.386899533416594998e+00
9.719519744357659974e+00 -2.519751860863322257e+00 -6.379134332712853572e-01 -2.519751860863322257e+00 8.351035868958327057e+00 -3.646754995022861157e-01 -6.379134332712853572e-01 -3.646754995022861157e-01 1.312585842730782826e+00
9.299969304298892681e+00 -2.596938476873936974e+00 -7.879772773053109747e-01 -2.596938476873936974e+00 8.238909107180955260e+00 -5.663693252726930139e-01 -7.879772773053109747e-01 -5.663693252726930139e-01 1.242591874295932763e+00
8.898462488762085343e+00 -2.654489991743814503e+00 -9.167525379972738531e-01 -2.654489991743814503e+00 8.112872426384939217e+00 -7.515283290298472307e-01 -9.167525379972738531e-01 -7.515283290298472307e-01 1.198784930224571887e+00
8.505925814167468957e+00 -2.697356517813171983e+00 -1.028083561465255258e+00 -2.697356517813171983e+00 7.964121033848214459e+00 -9.176206161529696370e-01 -1.028083561465255258e+00 -9.176206161529696370e-01 1.162335981949108143e+00
8.136186525423624971e+00 -2.725507052290734311e+00 -1.122032353291804840e+00 -2.725507052290734311e+00 7.803526575044498870e+00 -1.063158052660867270e+00 -1.122032353291804840e+00 -1.063158052660867270e+00 1.138308818711100567e+00
7.788314538792306507e+00 -2.740502069004002728e+00 -1.200955125613811125e+00 -2.740502069004002728e+00 7.632577183954983191e+00 -1.188305986773672940e+00 -1.200955125613811125e+00 -1.188305986773672940e+00 1.128057229062883859e+00
7.460687374863463894e+00 -2.745410844289187136e+00 -1.267125416458096510e+00 -2.745410844289187136e+00 7.450973166930678460e+00 -1.293663805789366794e+00 -1.267125416458096510e+00 -1.293663805789366794e+00 1.124181880153527713e+00
7.154328125749168876e+00 -2.742124548414053287e+00 -1.321742000420621510e+00 -2.742124548414053287e+00 7.261608117823902475e+00 -1.379438194983114707e+00 -1.321742000420621510e+00 -1.379438194983114707e+00 1.130516783837355099e+00
6.865196094319929720e+00 -2.732875382350389959e+00 -1.367316103594649057e+00 -2.732875382350389959e+00 7.064316688414524315e+00 -1.446435226928062701e+00 -1.367316103594649057e+00 -1.446435226928062701e+00 1.145501466286865222e+00
6.594583063545535140e+00 -2.719089474496840353e+00 -1.405005163521106715e+00 -2.719089474496840353e+00 6.862333503258885692e+00 -1.495398968614807034e+00 -1.405005163521106715e+00 -1.495398968614807034e+00 1.167761470422206793e+00
6.343739479340735343e+00 -2.699857409642675954e+00 -1.433000684042294859e+00 -2.699857409642675954e+00 6.659781933596542025e+00 -1.530680145085584698e+00 -1.433000684042294859e+00 -1.530680145085584698e+00 1.197865180750084635e+00
6.070945918913341011e+00 -2.679147545071077552e+00 -1.455240019650119621e+00 -2.679147545071077552e+00 6.418125509872854906e+00 -1.553622210628972766e+00 -1.455240019650119621e+00 -1.553622210628972766e+00 1.201523510120516836e+00
5.848263203449861614e+00 -2.656763529770636456e+00 -1.474523755823075488e+00 -2.656763529770636456e+00 6.209724746923321881e+00 -1.561052546271177954e+00 -1.474523755823075488e+00 -1.561052546271177954e+00 1.237931121340947183e+00
5.638239961090278918e+00 -2.633852467018523491e+00 -1.492154009794705916e+00 -2.633852467018523491e+00 6.001478997930163928e+00 -1.555895748655794941e+00 -1.492154009794705916e+00 -1.555895748655794941e+00 1.281428037499560135e+00
5.446012320922459793e+00 -2.609494607340250738e+00 -1.505919249120738712e+00 -2.609494607340250738e+00 5.798307372442322638e+00 -1.539670954555290905e+00 -1.505919249120738712e+00 -1.539670954555290905e+00 1.329358352810475985e+00
5.260150587229742492e+00 -2.584475354781447631e+00 -1.517183596617267316e+00 -2.584475354781447631e+00 5.591157055407542487e+00 -1.513700949730725887e+00 -1.517183596617267316e+00 -1.513700949730725887e+00 1.376844294779785871e+00
5.078246876556447020e+00 -2.559259751211237610e+00 -1.527094155561460553e+00 -2.559259751211237610e+00 5.378632921218454932e+00 -1.477872057280759099e+00 -1.527094155561460553e+00 -1.477872057280759099e+00 1.426407423764510574e+00
4.910563112814549491e+00 -2.533899467948411477e+00 -1.535134212765404405e+00 -2.533899467948411477e+00 5.172877729791043322e+00 -1.433610405604033744e+00 -1.535134212765404405e+00 -1.433610405604033744e+00 1.477127990290162618e+00
4.754143696569179234e+00 -2.507898460332571577e+00 -1.540797389304943588e+00 -2.507898460332571577e+00 4.969561424610585476e+00 -1.380926328964307448e+00 -1.540797389304943588e+00 -1.380926328964307448e+00 1.526009057866840823e+00
4.585395503660177674e+00 -2.482269486212030252e+00 -1.545592487688786987e+00 -2.482269486212030252e+00 4.747488430708845186e+00 -1.320977264902508663e+00 -1.545592487688786987e+00 -1.320977264902508663e+00 1.564194162453696135e+00
4.433802188589926807e+00 -2.455906779364650294e+00 -1.548413741694798063e+00 -2.455906779364650294e+00 4.535057304893582497e+00 -1.253163826120656354e+00 -1.548413741694798063e+00 -1.253163826120656354e+00 1.606905674566678988e+00
4.300066481293987941e+00 -2.428520980405200813e+00 -1.548816777981371073e+00 -2.428520980405200813e+00 4.333012114155393668e+00 -1.177909717432840342e+00 -1.548816777981371073e+00 -1.177909717432840342e+00 1.651591031057494385e+00
4.183981696497196978e+00 -2.400360111663879970e+00 -1.547431986637761048e+00 -2.400360111663879970e+00 4.141218513065422435e+00 -1.093788810440417869e+00 -1.547431986637761048e+00 -1.093788810440417869e+00 1.709493910895153235e+00
4.082933265468706274e+00 -2.371124479491697912e+00 -1.543215607024381875e+00 -2.371124479491697912e+00 3.958271041752539965e+00 -1.002929963477594777e+00 -1.543215607024381875e+00 -1.002929963477594777e+00 1.765970662334169106e+00
3.984881770930118527e+00 -2.341031103427578142e+00 -1.536550006900289311e+00 -2.341031103427578142e+00 3.772140617202107027e+00 -9.061909204363087778e-01 -1.536550006900289311e+00 -9.061909204363087778e-01 1.810532007659884979e+00
3.866564785161537898e+00 -2.310782713407084188e+00 -1.528168918992321990e+00 -2.310782713407084188e+00 3.559606148749261401e+00 -8.029722940185795022e-01 -1.528168918992321990e+00 -8.029722940185795022e-01 1.835210229514664393e+00
3.763842203404206277e+00 -2.278870506921506500e+00 -1.515437106042117454e+00 -2.278870506921506500e+00 3.355824801699681448e+00 -6.929640563116582497e-01 -1.515437106042117454e+00 -6.929640563116582497e-01 1.858069620947986333e+00
3.676042298513834794e+00 -2.244932784739305465e+00 -1.498437242159742055e+00 -2.244932784739305465e+00 3.162088359023152773e+00 -5.765175722833267846e-01 -1.498437242159742055e+00 -5.765175722833267846e-01 1.875524192435725768e+00
3.597873927446183284e+00 -2.208277151188676068e+00 -1.476146235233125825e+00 -2.208277151188676068e+00 2.971348852836525278e+00 -4.541908921765323570e-01 -1.476146235233125825e+00 -4.541908921765323570e-01 1.874625111488755325e+00
3.523859930409360963e+00 -2.168975946115926590e+00 -1.448398737042136508e+00 -2.168975946115926590e+00 2.778645836535824643e+00 -3.250849350443044128e-01 -1.448398737042136508e+00 -3.250849350443044128e-01 1.863701794696250413e+00
3.482636552277570630e+00 -2.124466272109002407e+00 -1.412549176064653134e+00 -2.124466272109002407e+00 2.605340233309420661e+00 -1.875048816302844756e-01 -1.412549176064653134e+00 -1.875048816302844756e-01 1.847301318111855384e+00
3.437589496555215618e+00 -2.076814981919560044e+00 -1.369610310148987820e+00 -2.076814981919560044e+00 2.422961146503245011e+00 -4.411697198410959725e-02 -1.369610310148987820e+00 -4.411697198410959725e-02 1.805168524769336091e+00
3.414306400307804079e+00 -2.024523607302648465e+00 -1.316833225135437102e+00 -2.024523607302648465e+00 2.254274959176793658e+00 1.045724149700644201e-01 -1.316833225135437102e+00 1.045724149700644201e-01 1.743689989671311169e+00
3.397110185414021988e+00 -1.967550811203234939e+00 -1.252957140845490480e+00 -1.967550811203234939e+00 2.084255651825523525e+00 2.581602429456645309e-01 -1.252957140845490480e+00 2.581602429456645309e-01 1.659796436481570936e+00
3.400964865795861325e+00 -1.903106342406583051e+00 -1.175801527626150644e+00 -1.903106342406583051e+00 1.924684285133877681e+00 4.150240325326403079e-01 -1.175801527626150644e+00 4.150240325326403079e-01 1.536126302086199713e+00
3.405460270530714428e+00 -1.832595660783818969e+00 -1.087453906756590483e+00 -1.832595660783818969e+00 1.757362220623519544e+00 5.772409707464065676e-01 -1.087453906756590483e+00 5.772409707464065676e-01 1.388418670189062620e+00
3.439315318602848670e+00 -1.753548877296713160e+00 -9.827368120939100615e-01 -1.753548877296713160e+00 1.610088627804230121e+00 7.388481873984341641e-01 -9.827368120939100615e-01 7.388481873984341641e-01 1.199580668533959615e+00
3.488651093784891355e+00 -1.667877830740548184e+00 -8.636034194884251169e-01 -1.667877830740548184e+00 1.470710412496269326e+00 9.002280502477796320e-01 -8.636034194884251169e-01 9.002280502477796320e-01 9.823131072798204633e-01
3.561704004292193027e+00 -1.572564916097905163e+00 -7.285139236401513285e-01 -1.572564916097905163e+00 1.348673091774706734e+00 1.058238943111924790e+00 -7.285139236401513285e-01 1.058238943111924790e+00 7.468985788661366421e-01
3.628442679643184121e+00 -1.472043532521087661e+00 -5.810439798094546582e-01 -1.472043532521087661e+00 1.208840168861381015e+00 1.215970810854596129e+00 -5.810439798094546582e-01 1.215970810854596129e+00 4.777323450179007946e-01
3.738171892228631332e+00 -1.361528915890010571e+00 -4.163571525574588095e-01 -1.361528915890010571e+00 1.115769789454285510e+00 1.363471757476567792e+00 -4.163571525574588095e-01 1.363471757476567792e+00 2.028202605200596920e-01
3.863877876584384641e+00 -1.252533436031401104e+00 -2.433409087162868856e-01 -1.252533436031401104e+00 1.040443340920161663e+00 1.501382507330852656e+00 -2.433409087162868856e-01 1.501382507330852656e+00 -1.048204373002632195e-01
4.012980634088889609e+00 -1.143031577248635688e+00 -6.133385540540886582e-02 -1.143031577248635688e+00 9.980625252474435438e-01 1.623347488206107192e+00 -6.133385540540886582e-02 1.623347488206107192e+00 -4.277971825378779069e-01
4.233803182075878802e+00 -1.036443980845706214e+00 1.255923074544117723e-01 -1.036443980845706214e+00 1.036133952932957847e+00 1.732890684043905782e+00 1.255923074544117723e-01 1.732890684043905782e+00 -6.949068978982153588e-01
4.488832143102782446e+00 -9.411103976755466061e-01 3.038066859660000230e-01 -9.411103976755466061e-01 1.129731379791725887e+00 1.835520257427412760e+00 3.038066859660000230e-01 1.835520257427412760e+00 -8.683571808172351192e-01
4.695879117499980104e+00 -8.503962304053395149e-01 4.796028467581499588e-01 -8.503962304053395149e-01 1.173176624631546927e+00 1.921708017171492200e+00 4.796028467581499588e-01 1.921708017171492200e+00 -1.101022795071215921e+00
4.843452403968259823e+00 -7.674637637451194871e-01 6.460258303215373754e-01 -7.674637637451194871e-01 1.156404114551853768e+00 1.996156053286161969e+00 6.460258303215373754e-01 1.996156053286161969e+00 -1.365156242469167891e+00
4.989754575994270525e+00 -6.950929146458645347e-01 8.023315696655658469e-01 -6.950929146458645347e-01 1.149666174581453149e+00 2.056673501854666686e+00 8.023315696655658469e-01 2.056673501854666686e+00 -1.605675897179443368e+00
5.122932233047261974e+00 -6.344824577035353963e-01 9.460088386969726093e-01 -6.344824577035353963e-01 1.140995727288254047e+00 2.104397131890416883e+00 9.460088386969726093e-01 2.104397131890416883e+00 -1.829454044601301010e+00
5.231483339564265478e+00 -5.870688555805336772e-01 1.075052790246651124e+00 -5.870688555805336772e-01 1.118828731526737341e+00 2.141342124826278059e+00 1.075052790246651124e+00 2.141342124826278059e+00 -2.043362970133998147e+00
5.325432131390814838e+00 -5.522940580339116279e-01 1.188843368489103769e+00 -5.522940580339116279e-01 1.093623462220285170e+00 2.167384469497151134e+00 1.188843368489103769e+00 2.167384469497151134e+00 -2.242276878953426866e+00
5.411971256102675376e+00 -5.300753909536035646e-01 1.287711269864595831e+00 -5.300753909536035646e-01 1.072241870504398120e+00 2.183392244058731002e+00 1.287711269864595831e+00 2.183392244058731002e+00 -2.418197050910676715e+00
5.487256367581767158e+00 -5.183770043792272908e-01 1.371677162900644342e+00 -5.183770043792272908e-01 1.050095543270397780e+00 2.189954501545240628e+00 1.371677162900644342e+00 2.189954501545240628e+00 -2.575722233378182402e+00
5.517298072327094793e+00 -5.155040790544246354e-01 1.440120991771751902e+00 -5.155040790544246354e-01 9.905185127038970139e-01 2.188311353607673482e+00 1.440120991771751902e+00 2.188311353607673482e+00 -2.745338504442879302e+00
5.554232730999197898e+00 -5.244432172053393737e-01 1.494923592481925745e+00 -5.244432172053393737e-01 9.460088386969726093e-01 2.179888928644673207e+00 1.494923592481925745e+00 2.179888928644673207e+00 -2.887155605997794972e+00
5.580316412725103703e+00 -5.422078166058276194e-01 1.538079477936515227e+00 -5.422078166058276194e-01 9.041033991571356676e-01 2.163870819819334823e+00 1.538079477936515227e+00 2.163870819819334823e+00 -3.008335182827419629e+00
5.591425746265257679e+00 -5.698726406867509198e-01 1.568410542067075308e+00 -5.698726406867509198e-01 8.508716065382205818e-01 2.141776163904125951e+00 1.568410542067075308e+00 2.141776163904125951e+00 -3.125133031823533081e+00
5.593141234049133104e+00 -6.064766029185888474e-01 1.587487592964865746e+00 -6.064766029185888474e-01 7.935887825260585782e-01 2.114111339823202318e+00 1.587487592964865746e+00 2.114111339823202318e+00 -3.230470182311710570e+00
5.583840396666677641e+00 -6.501181987698174680e-01 1.596302719950680959e+00 -6.501181987698174680e-01 7.292579906307476989e-01 2.080845344785290152e+00 1.596302719950680959e+00 2.080845344785290152e+00 -3.330836551932153888e+00
5.556041227156897300e+00 -6.989889320827371577e-01 1.595465644586260057e+00 -6.989889320827371577e-01 6.493534632517043992e-01 2.042412217868236013e+00 1.595465644586260057e+00 2.042412217868236013e+00 -3.434489217427730612e+00
5.545996322783845578e+00 -7.536158503090204519e-01 1.587198233579633744e+00 -7.536158503090204519e-01 5.922049846684001029e-01 1.998801624808282495e+00 1.587198233579633744e+00 1.998801624808282495e+00 -3.505888645733707065e+00
5.616703355418017907e+00 -8.000270288474687908e-01 1.576543607644844025e+00 -8.000270288474687908e-01 6.404039908370314782e-01 1.946189888014864255e+00 1.576543607644844025e+00 1.946189888014864255e+00 -3.471857915177682052e+00
5.595797139835011258e+00 -8.606788228448309930e-01 1.554686639796075687e+00 -8.606788228448309930e-01 5.820050663389749745e-01 1.891614641107372430e+00 1.554686639796075687e+00 1.891614641107372430e+00 -3.524283635223450784e+00
5.575479977286226685e+00 -9.272728185032058645e-01 1.526474099735963597e+00 -9.272728185032058645e-01 5.252596240422436891e-01 1.831272875022758706e+00 1.526474099735963597e+00 1.831272875022758706e+00 -3.567098489974016573e+00
5.557808386259564415e+00 -9.955926362092138993e-01 1.493332115863150511e+00 -9.955926362092138993e-01 4.750661049682637915e-01 1.766497709785841641e+00 1.493332115863150511e+00 1.766497709785841641e+00 -3.592830806732141280e+00
5.589007528545819170e+00 -1.059355043597819401e+00 1.459187708405783823e+00 -1.059355043597819401e+00 4.830131537983833323e-01 1.693176108420824555e+00 1.459187708405783823e+00 1.693176108420824555e+00 -3.561125285521729023e+00
5.587777751158584216e+00 -1.131095502607819103e+00 1.419059762232371291e+00 -1.131095502607819103e+00 4.541392208577409995e-01 1.616061832256517894e+00 1.419059762232371291e+00 1.616061832256517894e+00 -3.556743557688217372e+00
5.602679759498027323e+00 -1.200541755063480043e+00 1.378177414804604206e+00 -1.200541755063480043e+00 4.462231748188962843e-01 1.531052178580882828e+00 1.378177414804604206e+00 1.531052178580882828e+00 -3.527445919933485108e+00
5.623606643608550115e+00 -1.271011099631210950e+00 1.335445234164104544e+00 -1.271011099631210950e+00 4.449933974316606089e-01 1.438818874538208226e+00 1.335445234164104544e+00 1.438818874538208226e+00 -3.490800620646614227e+00
5.652986955473348729e+00 -1.341759469320415343e+00 1.292826730424945891e+00 -1.341759469320415343e+00 4.551209759147778477e-01 1.337863451883542609e+00 1.292826730424945891e+00 1.337863451883542609e+00 -3.441774873377320354e+00
5.692711865360188916e+00 -1.411505415425066579e+00 1.249887864509280577e+00 -1.411505415425066579e+00 4.807706185628359830e-01 1.228712958068559180e+00 1.249887864509280577e+00 1.228712958068559180e+00 -3.374033774441775879e+00
5.740838531682511459e+00 -1.478574787216322406e+00 1.209563567324460909e+00 -1.478574787216322406e+00 5.226140525201232734e-01 1.110096278650988255e+00 1.209563567324460909e+00 1.110096278650988255e+00 -3.294573620404338765e+00
5.808662304728121839e+00 -1.543577306255921711e+00 1.172628908652358026e+00 -1.543577306255921711e+00 5.945508625415304449e-01 9.814346948603664966e-01 1.172628908652358026e+00 9.814346948603664966e-01 -3.197131847427489681e+00
5.883616719766948222e+00 -1.607412053490835158e+00 1.139951966648667492e+00 -1.607412053490835158e+00 6.831568400050477274e-01 8.422941676188457905e-01 1.139951966648667492e+00 8.422941676188457905e-01 -3.098119266359381729e+00
5.966042807503011858e+00 -1.668539223621078316e+00 1.111698089533522005e+00 -1.668539223621078316e+00 7.927723756891542628e-01 6.929020507291085984e-01 1.111698089533522005e+00 6.929020507291085984e-01 -2.988989441071914666e+00
6.063474246216102870e+00 -1.725687702204382612e+00 1.089427751134422362e+00 -1.725687702204382612e+00 9.331943516367019464e-01 5.324419373542502720e-01 1.089427751134422362e+00 5.324419373542502720e-01 -2.866311395997338529e+00
6.171880673040489818e+00 -1.778402781635383567e+00 1.073957358288273101e+00 -1.778402781635383567e+00 1.102479926261133780e+00 3.603144401962907750e-01 1.073957358288273101e+00 3.603144401962907750e-01 -2.726995186271927274e+00
6.285826265239317756e+00 -1.827707554026151149e+00 1.064914877499775425e+00 -1.827707554026151149e+00 1.294469878362513038e+00 1.772429577183095850e-01 1.064914877499775425e+00 1.772429577183095850e-01 -2.587833990502889758e+00
6.407873920224638198e+00 -1.870615417150541804e+00 1.065214571148765499e+00 -1.870615417150541804e+00 1.516305184197813238e+00 -1.765092249914715361e-02 1.065214571148765499e+00 -1.765092249914715361e-02 -2.443536665645985817e+00
6.529818232572375258e+00 -1.908924532902496196e+00 1.073502650682908621e+00 -1.908924532902496196e+00 1.759026037088603056e+00 -2.233957796628009140e-01 1.073502650682908621e+00 -2.233957796628009140e-01 -2.299115329623982351e+00
6.650315747993953863e+00 -1.941384455367262785e+00 1.088776692517650746e+00 -1.941384455367262785e+00 2.024533941566406536e+00 -4.391648726719890594e-01 1.088776692517650746e+00 -4.391648726719890594e-01 -2.148214410225536497e+00
6.755466881734482065e+00 -1.971219474837425212e+00 1.109858590584547722e+00 -1.971219474837425212e+00 2.293462487348202128e+00 -6.625193152797569374e-01 1.109858590584547722e+00 -6.625193152797569374e-01 -2.006821013484709759e+00
6.869681164791025196e+00 -1.993314130752634306e+00 1.140592691001680814e+00 -1.993314130752634306e+00 2.597486192853125875e+00 -8.949679099948135708e-01 1.140592691001680814e+00 -8.949679099948135708e-01 -1.860260484864742159e+00
6.966998926602774311e+00 -2.011523103494728737e+00 1.176338909341581473e+00 -2.011523103494728737e+00 2.908857559890189126e+00 -1.132800656127935790e+00 1.176338909341581473e+00 -1.132800656127935790e+00 -1.716345527766894863e+00
7.060803038736708004e+00 -2.023066476112730605e+00 1.218947078816981611e+00 -2.023066476112730605e+00 3.240050044815638852e+00 -1.375500840491209020e+00 1.218947078816981611e+00 -1.375500840491209020e+00 -1.572130877020057271e+00
7.142619404911034309e+00 -2.028832995289852281e+00 1.267476781425878052e+00 -2.028832995289852281e+00 3.580264342002069000e+00 -1.621725008796056855e+00 1.267476781425878052e+00 -1.621725008796056855e+00 -1.434819514463752554e+00
7.203643232403694974e+00 -2.029277368631458689e+00 1.320791248154859598e+00 -2.029277368631458689e+00 3.920602650353599117e+00 -1.869871350159945322e+00 1.320791248154859598e+00 -1.869871350159945322e+00 -1.310301970440202357e+00
7.227525715949086660e+00 -2.023076810376489121e+00 1.379696551577071828e+00 -2.023076810376489121e+00 4.238556943404688582e+00 -2.117593986709743969e+00 1.379696551577071828e+00 -2.117593986709743969e+00 -1.216198164657278591e+00
7.228104434719549332e+00 -2.018354051838953556e+00 1.432959346987261684e+00 -2.018354051838953556e+00 4.550093658661883644e+00 -2.362175007077024880e+00 1.432959346987261684e+00 -2.362175007077024880e+00 -1.107998423108056851e+00
7.189536962373638929e+00 -2.007296389617590826e+00 1.492846405466511150e+00 -2.007296389617590826e+00 4.829924852708667338e+00 -2.604906194231572769e+00 1.492846405466511150e+00 -2.604906194231572769e+00 -1.052255404395878946e+00
7.182178966577740908e+00 -1.986431511089617796e+00 1.556650149910149494e+00 -1.986431511089617796e+00 5.154224383707342483e+00 -2.844816127380110249e+00 1.556650149910149494e+00 -2.844816127380110249e+00 -9.660779789155581332e-01
7.138217008550005183e+00 -1.963510114073746315e+00 1.619782167209499635e+00 -1.963510114073746315e+00 5.445846972702327093e+00 -3.077419736051540955e+00 1.619782167209499635e+00 -3.077419736051540955e+00 -9.041240676846522550e-01
7.062694209004473755e+00 -1.941260444202163482e+00 1.677643709992125531e+00 -1.941260444202163482e+00 5.710579807398259433e+00 -3.301270223319706432e+00 1.677643709992125531e+00 -3.301270223319706432e+00 -8.527007712234365711e-01
6.967753327857129086e+00 -1.916241191643360597e+00 1.734151464222416283e+00 -1.916241191643360597e+00 5.956493947790358234e+00 -3.516264246547023298e+00 1.734151464222416283e+00 -3.516264246547023298e+00 -8.066926289715612430e-01
6.844744586342288883e+00 -1.888731381518811370e+00 1.790194176583584262e+00 -1.888731381518811370e+00 6.171611982182774625e+00 -3.721389047885180101e+00 1.790194176583584262e+00 -3.721389047885180101e+00 -7.853213715194323763e-01
6.696830269169985250e+00 -1.858720679564757949e+00 1.843229618191091879e+00 -1.858720679564757949e+00 6.357752740996966523e+00 -3.913678693635549433e+00 1.843229618191091879e+00 -3.913678693635549433e+00 -7.763408963134844631e-01