9.271110000000000184e+00 1.520880000000000010e+00 8.937450000000000117e+00 8.116490000000000649e+00 1.368900000000000117e-01 1.311459999999999937e+01 -2.302800000000000125e-01 1.133760000000000101e+00 5.671890000000000320e+00 -2.124569999999999848e+00 5.425790000000000113e+00 1.090799999999999947e+01 -2.217459999999999987e+00 5.387579999999999814e+00 1.592839999999999989e+01 1.084470000000000045e+00 4.088549999999999685e+00 1.358699999999999974e+01 5.380169999999999675e+00 2.929860000000000131e+00 1.487129999999999974e+01 -2.678699999999999970e-01 8.017199999999999882e-01 1.449589999999999934e+00 6.255919999999999703e+00 2.286020000000000163e+00 1.262190000000000012e+01 1.625220000000000109e+00 1.164649999999999963e+00 8.667070000000000718e+00 7.806750000000000078e+00 2.266070000000000029e+00 6.859899999999999665e+00 5.507620000000000182e+00 5.069560000000000066e+00 1.036459999999999937e+01 1.947200000000000042e-01 4.240730000000000111e+00 1.104529999999999923e+01 -4.791000000000000120e-02 1.274410000000000043e+00 1.406140000000000079e+01 6.733859999999999957e+00 3.345860000000000056e+00 1.693789999999999907e+01 3.327389999999999848e+00 4.699259999999999771e+00 1.477190000000000047e+01 -2.208740000000000148e+00 4.562129999999999797e+00 3.201769999999999783e+00 2.237239999999999895e+00 7.743700000000000028e-01 4.073349999999999582e+00 2.794210000000000083e+00 1.388929999999999998e+00 1.888609999999999900e+00 3.070899999999999741e-01 5.448620000000000019e+00 1.575960000000000072e+01
2.154650000000000176e+00 3.742900000000000116e-01 1.147760000000000069e+01 1.871599999999999930e-01 4.262900000000000134e+00 1.159880000000000067e+01 6.683939999999999770e+00 7.007799999999999585e-01 1.147059999999999924e+01 4.127430000000000376e+00 4.352369999999999628e+00 1.213540000000000063e+01 3.946100000000000163e-01 2.392119999999999802e+00 1.475489999999999924e+01 -1.932679999999999954e+00 6.137970000000000148e+00 1.571950000000000003e+01 5.506850000000000023e+00 1.695470000000000033e+00 1.690009999999999835e+01 3.327749999999999986e+00 5.901049999999999685e+00 1.683790000000000120e+01 4.353580000000000005e+00 6.485019999999999563e+00 1.032189999999999941e+01 6.274510000000000254e+00 3.187910000000000021e+00 1.082460000000000022e+01 2.988100000000000200e-01 6.581369999999999720e+00 1.029870000000000019e+01 2.314839999999999787e+00 2.975600000000000023e+00 1.065850000000000009e+01 2.678900000000000059e+00 9.620800000000000463e-01 1.425399999999999956e+01 5.879799999999999471e-01 4.938710000000000377e+00 1.405150000000000077e+01 6.536069999999999602e+00 7.559799999999999853e-01 1.449409999999999954e+01 4.624150000000000205e+00 4.448769999999999669e+00 1.456969999999999921e+01 -9.123700000000000143e-01 3.690650000000000208e+00 1.675219999999999843e+01 1.371839999999999948e+00 4.157899999999999929e-01 1.761169999999999902e+01 6.941000000000000503e-01 6.630810000000000315e+00 1.802890000000000015e+01 3.356770000000000032e+00 6.612099999999999644e-01 1.904650000000000176e+01
1.087790000000000035e+00 1.721470000000000056e+00 1.106799999999999962e+01 -9.229899999999999771e-01 5.374509999999999899e+00 1.123240000000000016e+01 6.538879999999999804e+00 1.998520000000000074e+00 1.155620000000000047e+01 3.510800000000000143e+00 5.580610000000000070e+00 1.156859999999999999e+01 3.120449999999999946e+00 4.616270000000000095e+00 5.558800000000000407e-01 -1.306689999999999907e+00 4.355570000000000164e+00 1.851460000000000150e+01 3.638679999999999914e+00 6.122199999999999864e-01 1.342530000000000001e+01 1.467969999999999997e+00 4.035210000000000186e+00 1.431370000000000076e+01 7.458319999999999617e+00 4.197400000000000020e-01 9.796900000000000830e+00 5.691650000000000098e+00 4.571089999999999876e+00 1.006429999999999936e+01 3.467680000000000096e+00 7.468000000000000194e-01 1.036720000000000041e+01 1.403450000000000086e+00 4.276959999999999873e+00 1.033270000000000088e+01 1.333639999999999937e+00 1.420970000000000066e+00 1.343820000000000014e+01 -8.297799999999999621e-01 5.093820000000000014e+00 1.391869999999999941e+01 5.974700000000000344e+00 1.700990000000000002e+00 1.386849999999999916e+01 3.309410000000000185e+00 5.934929999999999595e+00 1.400489999999999924e+01 5.011960000000000193e+00 2.749779999999999891e+00 1.803790000000000049e+01 1.219629999999999992e+00 4.651519999999999655e+00 1.790480000000000160e+01 6.019569999999999865e+00 3.099229999999999929e+00 3.733699999999999797e-01 2.094689999999999941e+00 2.721750000000000114e+00 1.682710000000000150e+01
2.212400000000000144e+00 1.328989999999999894e+00 1.163299999999999912e+01 -5.282200000000000228e-01 5.128630000000000244e+00 1.180540000000000056e+01 6.152169999999999916e+00 1.743570000000000064e+00 1.106920000000000037e+01 3.731930000000000192e+00 4.860070000000000334e+00 1.121170000000000044e+01 2.984269999999999978e+00 6.014450000000000074e+00 9.266400000000000192e-01 -2.490689999999999849e+00 7.120860000000000412e+00 1.554739999999999966e+01 3.595380000000000020e+00 3.304139999999999855e+00 1.455829999999999913e+01 5.914920000000000400e+00 7.137999999999999901e-02 1.513519999999999932e+01 1.061300000000000021e-01 3.090700000000000114e-01 1.047020000000000017e+01 5.489099999999999646e+00 3.740409999999999791e+00 9.792680000000000717e+00 3.939670000000000005e+00 1.531899999999999928e-01 1.020149999999999935e+01 1.630290000000000017e+00 3.817699999999999871e+00 1.030840000000000067e+01 1.161419999999999897e+00 1.882300000000000084e+00 1.413579999999999970e+01 -3.145800000000000263e-01 5.770039999999999836e+00 1.469180000000000064e+01 5.802760000000000140e+00 2.417530000000000179e+00 1.356339999999999968e+01 3.584220000000000184e+00 5.619720000000000049e+00 1.364029999999999987e+01 -2.631520000000000081e+00 5.376970000000000027e+00 4.300800000000000178e-01 -2.455299999999999816e+00 5.965460000000000207e+00 1.825750000000000028e+01 4.745400000000000063e+00 2.283659999999999801e+00 1.666560000000000130e+01 3.242640000000000189e+00 7.308699999999999974e+00 1.728740000000000165e+01
6.311969999999999636e+00 7.561900000000000288e-01 1.275339999999999918e+01 3.680919999999999970e+00 3.917940000000000200e+00 1.225910000000000011e+01 3.210970000000000102e+00 4.599099999999999855e-01 1.112470000000000070e+01 6.213700000000000223e+00 6.695820000000000327e+00 1.138990000000000080e+01 1.172490000000000032e+00 6.186919999999999753e+00 1.709990000000000165e+01 2.386390000000000011e+00 5.805599999999999650e-01 1.465019999999999989e+01 5.660070000000000157e+00 2.821190000000000087e+00 1.687010000000000076e+01 8.446690000000000254e+00 6.368999999999999662e-02 1.538419999999999987e+01 -2.335259999999999891e+00 5.921190000000000175e+00 9.581390000000000740e+00 1.262880000000000003e+00 1.796599999999999975e+00 1.238339999999999996e+01 3.383370000000000211e+00 6.287029999999999674e+00 1.045969999999999978e+01 5.129369999999999763e+00 2.223289999999999988e+00 1.068619999999999948e+01 2.796500000000000097e-01 6.380370000000000097e+00 1.365729999999999933e+01 3.776629999999999932e+00 3.606689999999999952e+00 1.468779999999999930e+01 7.717620000000000147e+00 2.163759999999999906e+00 1.448590000000000089e+01 6.593119999999999870e+00 5.944270000000000387e+00 1.444110000000000049e+01 3.316819999999999879e+00 1.025830000000000020e+00 1.719209999999999994e+01 3.408739999999999881e+00 6.766560000000000130e+00 1.806790000000000163e+01 2.262000000000000122e-02 3.772759999999999891e+00 1.639920000000000044e+01 7.017200000000000104e-01 2.052890000000000104e+00 1.792150000000000176e+01
9.193350000000000577e+00 1.188400000000000012e-01 1.129659999999999975e+01 6.948839999999999684e+00 3.947430000000000216e+00 1.204659999999999975e+01 2.142959999999999976e+00 6.719369999999999621e+00 1.385919999999999952e+01 2.368000000000000105e-01 2.320429999999999993e+00 1.540799999999999947e+01 4.304240000000000066e+00 4.147999999999999687e+00 1.590579999999999927e+01 3.689090000000000202e+00 2.270700000000000163e+00 1.176440000000000019e+01 8.006529999999999703e+00 3.592600000000000016e+00 1.611080000000000112e+01 1.074081999999999937e+01 5.020299999999999763e-01 1.539939999999999998e+01 -1.827000000000000013e-01 6.447320000000000384e+00 1.273789999999999978e+01 1.609879999999999978e+00 6.235000000000000542e-01 1.354509999999999970e+01 6.571069999999999744e+00 5.483590000000000408e+00 1.007510000000000083e+01 6.705849999999999866e+00 1.185140000000000082e+00 1.159120000000000061e+01 4.427270000000000039e+00 4.680030000000000356e+00 1.307820000000000071e+01 5.536270000000000024e+00 5.921369999999999578e+00 1.733079999999999998e+01 8.048510000000000275e+00 5.048339999999999606e+00 1.411800000000000033e+01 5.620949999999999669e+00 1.833869999999999889e+00 1.602990000000000137e+01 1.047813000000000017e+01 2.959270000000000067e+00 1.726549999999999940e+01 1.106231999999999971e+01 1.196569999999999911e+00 1.286880000000000024e+01 1.415849000000000046e+01 9.164799999999999613e-01 1.526939999999999920e+01 1.816130000000000022e+00 4.766899999999999693e+00 1.567650000000000077e+01
2.293870000000000076e+00 7.418900000000000494e-01 1.169480000000000075e+01 4.697100000000000164e-01 4.255980000000000096e+00 1.233610000000000007e+01 6.536019999999999719e+00 8.451199999999999823e-01 1.154289999999999949e+01 4.440059999999999896e+00 4.435369999999999813e+00 1.160539999999999949e+01 -7.445399999999999796e-01 2.286059999999999981e+00 1.572170000000000023e+01 -2.480890000000000040e+00 6.112289999999999779e+00 1.578609999999999935e+01 4.506610000000000227e+00 2.523260000000000058e+00 1.534789999999999921e+01 1.792380000000000084e+00 5.748649999999999594e+00 1.723529999999999873e+01 4.389850000000000030e+00 6.762940000000000396e+00 1.041499999999999915e+01 -1.708429999999999893e+00 3.369320000000000093e+00 1.093050000000000033e+01 2.932600000000000207e-01 6.563600000000000101e+00 1.073680000000000057e+01 2.459029999999999827e+00 3.232810000000000183e+00 1.060510000000000019e+01 2.050180000000000113e+00 1.295830000000000037e+00 1.412020000000000053e+01 2.706000000000000072e-02 4.764289999999999914e+00 1.488339999999999996e+01 6.218270000000000408e+00 7.273399999999999865e-01 1.432259999999999955e+01 4.086640000000000050e+00 4.799590000000000245e+00 1.418140000000000001e+01 1.097199999999999981e-01 2.278699999999999892e-01 1.745469999999999899e+01 2.830799999999999983e+00 2.631200000000000205e+00 1.722070000000000078e+01 5.739550000000000374e+00 3.082030000000000047e+00 1.737930000000000064e+01 3.557929999999999815e+00 1.119999999999999902e-03 1.811439999999999984e+01
1.748310000000000031e+00 8.697200000000000486e-01 1.153049999999999997e+01 1.356900000000000051e-01 4.780579999999999607e+00 1.206589999999999918e+01 5.939669999999999561e+00 1.172250000000000014e+00 1.154429999999999978e+01 4.335469999999999935e+00 4.974940000000000140e+00 1.180509999999999948e+01 6.024699999999999500e-01 2.173929999999999918e+00 1.540579999999999927e+01 -2.174630000000000063e+00 5.941620000000000346e+00 1.550229999999999997e+01 4.185599999999999987e+00 2.899199999999999999e+00 1.551709999999999923e+01 1.977989999999999915e+00 7.299190000000000289e+00 1.623509999999999920e+01 3.841429999999999900e+00 7.376500000000000057e+00 1.099269999999999925e+01 -2.138520000000000199e+00 3.705540000000000056e+00 1.103989999999999938e+01 -4.300800000000000178e-01 7.337850000000000428e+00 1.107670000000000066e+01 2.226160000000000139e+00 3.485219999999999985e+00 1.118369999999999997e+01 2.523559999999999803e+00 9.578499999999999792e-01 1.415930000000000000e+01 2.031699999999999895e-01 5.012080000000000091e+00 1.461660000000000004e+01 6.830189999999999984e+00 1.787889999999999979e+00 1.418430000000000035e+01 4.328240000000000087e+00 5.282670000000000421e+00 1.445529999999999937e+01 6.334300000000000486e-01 3.436360000000000081e+00 1.777959999999999852e+01 2.667110000000000092e+00 2.757899999999999796e-01 1.709900000000000020e+01 4.292200000000000237e+00 3.877909999999999968e+00 1.811789999999999878e+01 2.389380000000000059e+00 4.982059999999999711e+00 1.805519999999999925e+01
2.591029999999999944e+00 1.310459999999999958e+00 1.217619999999999969e+01 7.922999999999999488e-02 4.994710000000000427e+00 1.161079999999999934e+01 6.889389999999999681e+00 1.345150000000000068e+00 1.189540000000000042e+01 4.561910000000000132e+00 5.083590000000000053e+00 1.134759999999999991e+01 -4.038900000000000268e-01 3.202799999999999869e+00 1.651760000000000161e+01 -2.305299999999999905e+00 6.415329999999999977e+00 1.509500000000000064e+01 4.078649999999999665e+00 2.666199999999999903e+00 1.601370000000000005e+01 2.353209999999999802e+00 6.878639999999999866e+00 1.509060000000000024e+01 1.305300000000000071e-01 9.414999999999999758e-02 1.088920000000000066e+01 6.606029999999999625e+00 3.802509999999999835e+00 1.070289999999999964e+01 1.113999999999999990e-01 7.595589999999999620e+00 1.114540000000000042e+01 2.146230000000000082e+00 3.962629999999999875e+00 1.066999999999999993e+01 2.095019999999999882e+00 1.098549999999999915e+00 1.496470000000000056e+01 5.659000000000000141e-02 5.073509999999999742e+00 1.442830000000000013e+01 6.538479999999999848e+00 1.511959999999999971e+00 1.452270000000000039e+01 4.237009999999999721e+00 5.126500000000000057e+00 1.426580000000000048e+01 1.275519999999999987e+00 4.241509999999999891e+00 1.792500000000000071e+01 -2.659440000000000026e+00 4.985999999999999766e+00 1.722650000000000148e+01 4.923079999999999679e+00 1.049639999999999906e+00 1.822970000000000113e+01 7.461999999999999744e-01 6.695929999999999715e+00 1.758220000000000027e+01
1.196290000000000076e+00 2.067779999999999951e+00 1.117399999999999949e+01 -7.409599999999999520e-01 5.401729999999999698e+00 1.161410000000000053e+01 6.387920000000000265e+00 1.856349999999999945e+00 1.150459999999999994e+01 4.048519999999999897e+00 5.598749999999999893e+00 1.118449999999999989e+01 3.579699999999999882e+00 2.746500000000000163e+00 1.999899999999999878e+01 -1.164199999999999902e+00 4.850310000000000343e+00 1.791580000000000084e+01 3.804790000000000116e+00 6.031400000000000095e-01 1.353899999999999970e+01 1.670770000000000088e+00 4.883270000000000444e+00 1.427330000000000076e+01 8.329620000000000246e+00 5.029500000000000082e-01 1.023969999999999914e+01 6.248549999999999827e+00 4.216029999999999944e+00 1.015600000000000058e+01 3.710659999999999847e+00 3.380799999999999916e-01 1.096840000000000082e+01 1.360500000000000043e+00 4.540600000000000414e+00 1.019769999999999932e+01 1.417489999999999917e+00 2.062910000000000021e+00 1.364610000000000056e+01 -9.337800000000000544e-01 5.962959999999999816e+00 1.428260000000000041e+01 6.198669999999999902e+00 1.855310000000000015e+00 1.403129999999999988e+01 4.137819999999999609e+00 5.374209999999999710e+00 1.371279999999999966e+01 5.617709999999999759e+00 5.266899999999999693e+00 1.850039999999999907e+01 8.532399999999999984e-01 4.149130000000000429e+00 1.976419999999999888e+01 4.419620000000000104e+00 3.676750000000000185e+00 1.747350000000000136e+01 1.587909999999999933e+00 4.744710000000000427e+00 1.746069999999999922e+01
2.125070000000000014e+00 1.281139999999999946e+00 1.142520000000000024e+01 2.335800000000000098e-01 4.870599999999999596e+00 1.194860000000000078e+01 6.084200000000000053e+00 1.368679999999999897e+00 1.158699999999999974e+01 4.115219999999999878e+00 4.779340000000000366e+00 1.138299999999999912e+01 3.058030000000000026e+00 1.372060000000000057e+00 1.995110000000000028e+01 -1.283020000000000049e+00 7.220819999999999794e+00 1.576720000000000077e+01 4.968429999999999680e+00 2.677210000000000090e+00 1.454310000000000080e+01 2.301480000000000192e+00 6.538960000000000328e+00 1.583259999999999934e+01 -3.987130000000000063e+00 7.337189999999999657e+00 1.010260000000000069e+01 -1.721980000000000066e+00 3.798130000000000006e+00 1.040760000000000041e+01 -2.836999999999999938e-02 7.222080000000000055e+00 1.055889999999999951e+01 2.094980000000000064e+00 3.760860000000000092e+00 1.037429999999999986e+01 2.544909999999999783e+00 1.839050000000000074e+00 1.408619999999999983e+01 2.864099999999999979e-01 5.187839999999999563e+00 1.475179999999999936e+01 7.098639999999999617e+00 1.266369999999999996e+00 1.397639999999999993e+01 4.560559999999999725e+00 5.164930000000000021e+00 1.380840000000000067e+01 3.635470000000000201e+00 4.923350000000000115e+00 1.747650000000000148e+01 8.690900000000000292e-01 2.122600000000000042e-01 1.729670000000000130e+01 4.314400000000000013e+00 2.263419999999999987e+00 1.747510000000000119e+01 5.038899999999999491e-01 7.304680000000000284e+00 1.832529999999999859e+01
6.292049999999999699e+00 8.365599999999999703e-01 1.358120000000000083e+01 4.885729999999999684e+00 2.672600000000000087e+00 1.112880000000000003e+01 2.416889999999999983e+00 2.724699999999999900e-01 1.238160000000000061e+01 8.602180000000000604e+00 3.983519999999999950e+00 1.263429999999999964e+01 2.629459999999999908e+00 4.366670000000000051e+00 1.642480000000000118e+01 -4.840999999999999748e-01 1.335650000000000004e+00 1.142759999999999998e+01 7.066749999999999865e+00 2.895999999999999908e+00 1.619859999999999900e+01 1.026941000000000059e+01 8.296099999999999586e-01 1.826249999999999929e+01 -1.263859999999999983e+00 3.746579999999999799e+00 1.080470000000000041e+01 2.021929999999999783e+00 1.997009999999999952e+00 1.036759999999999948e+01 6.901790000000000092e+00 4.632340000000000124e+00 1.083869999999999933e+01 6.523439999999999905e+00 5.959600000000000453e-01 1.099089999999999989e+01 8.199499999999999567e-01 5.265909999999999869e+00 1.423140000000000072e+01 4.872810000000000308e+00 3.473079999999999945e+00 1.462920000000000087e+01 8.492449999999999832e+00 2.234719999999999818e+00 1.442939999999999934e+01 9.629999999999999671e-03 7.952700000000000324e-01 1.385539999999999949e+01 6.973290000000000433e+00 7.876999999999999558e-01 1.792449999999999832e+01 8.759270000000000778e+00 5.015659999999999563e+00 1.705630000000000024e+01 -5.879400000000000182e-01 3.063870000000000093e+00 1.702609999999999957e+01 1.555020000000000069e+00 1.936839999999999895e+00 1.707059999999999889e+01
2.397689999999999877e+00 2.952700000000000102e+00 1.142660000000000053e+01 5.410999999999999838e-02 6.275050000000000239e+00 1.087519999999999953e+01 6.281100000000000350e+00 2.519130000000000091e+00 1.111420000000000030e+01 4.372499999999999609e+00 6.557150000000000034e+00 1.122429999999999950e+01 1.973980000000000068e+00 2.311999999999999889e-01 1.457099999999999973e+01 -6.534699999999999953e-01 4.910199999999999676e+00 1.449380000000000024e+01 3.641589999999999883e+00 4.689600000000000435e+00 1.590000000000000036e+01 -1.181110000000000104e+00 4.758119999999999905e+00 5.645900000000000363e-01 4.349100000000000188e-01 1.490169999999999995e+00 1.000229999999999997e+01 -2.157859999999999889e+00 5.379830000000000112e+00 9.826230000000000686e+00 4.146230000000000082e+00 1.471929999999999961e+00 1.004809999999999981e+01 2.281200000000000117e+00 5.273749999999999716e+00 1.016600000000000037e+01 1.017200000000000049e-01 7.119159999999999933e+00 1.343340000000000067e+01 1.858309999999999906e+00 2.914070000000000160e+00 1.404149999999999920e+01 3.379779999999999784e+00 6.971919999999999895e+00 1.371400000000000041e+01 6.439210000000000100e+00 2.710770000000000124e+00 1.371780000000000044e+01 3.802500000000000213e+00 5.855099999999999749e-01 1.210490000000000066e+00 3.350039999999999907e+00 2.020000000000000094e-03 1.873969999999999914e+01 -2.689340000000000064e+00 7.447770000000000223e+00 5.884399999999999631e-01 -2.218039999999999790e+00 5.803309999999999746e+00 1.647459999999999880e+01
2.817499999999999893e+00 1.207910000000000039e+00 1.170049999999999990e+01 5.157500000000000417e-01 5.072709999999999830e+00 1.175239999999999974e+01 7.135629999999999917e+00 1.327239999999999975e+00 1.162689999999999912e+01 5.076900000000000190e+00 4.840429999999999566e+00 1.140569999999999951e+01 2.856120000000000214e+00 1.761460000000000026e+00 1.892520000000000024e+01 -1.529830000000000023e+00 5.842880000000000074e+00 1.543950000000000067e+01 4.517210000000000392e+00 2.188779999999999948e+00 1.515900000000000070e+01 2.586699999999999999e+00 6.037469999999999892e+00 1.524460000000000015e+01 3.612799999999999900e-01 1.297000000000000063e-02 1.045630000000000059e+01 -1.383539999999999992e+00 3.664890000000000203e+00 1.050189999999999912e+01 4.851189999999999891e+00 1.435899999999999954e-01 1.036710000000000065e+01 2.707739999999999814e+00 3.572579999999999867e+00 1.062369999999999948e+01 2.124899999999999789e+00 9.889000000000000012e-01 1.434159999999999968e+01 6.680899999999999617e-01 4.567370000000000374e+00 1.450459999999999994e+01 7.055349999999999788e+00 1.479240000000000110e+00 1.431080000000000041e+01 4.746500000000000163e+00 4.911830000000000140e+00 1.403769999999999918e+01 2.974950000000000205e+00 6.003870000000000040e+00 1.791260000000000119e+01 4.096000000000000085e+00 9.019000000000000627e-02 1.731629999999999825e+01 4.549439999999999706e+00 4.065229999999999677e+00 1.735950000000000060e+01 5.929739999999999789e+00 1.094379999999999908e+00 1.862950000000000017e+01
2.033240000000000158e+00 1.805620000000000003e+00 1.091690000000000005e+01 -2.069600000000000051e-01 5.360949999999999882e+00 1.141360000000000063e+01 5.888749999999999929e+00 1.547779999999999934e+00 1.128480000000000061e+01 3.654799999999999827e+00 5.222760000000000069e+00 1.124019999999999975e+01 4.483000000000000179e-02 2.359620000000000051e+00 1.437679999999999936e+01 -1.178199999999999914e+00 3.821839999999999904e+00 1.796140000000000114e+01 5.027929999999999566e+00 3.616109999999999935e+00 1.442939999999999934e+01 1.767959999999999976e+00 4.511949999999999683e+00 6.465999999999999526e-02 8.090799999999999770e+00 3.515900000000000136e-01 1.035779999999999923e+01 5.790180000000000327e+00 4.057430000000000092e+00 1.021039999999999992e+01 4.081479999999999997e+00 6.862599999999999811e-01 9.734270000000000422e+00 1.610519999999999952e+00 4.181960000000000122e+00 9.620390000000000441e+00 2.292819999999999858e+00 1.605609999999999982e+00 1.338310000000000066e+01 -7.557700000000000529e-01 4.910210000000000186e+00 1.408500000000000085e+01 6.037849999999999717e+00 1.184609999999999941e+00 1.378630000000000067e+01 3.653399999999999981e+00 5.758390000000000342e+00 1.365809999999999924e+01 7.780399999999999539e-01 2.048700000000000188e+00 1.691319999999999979e+01 -9.340800000000000214e-01 4.750049999999999883e+00 6.490500000000000158e-01 4.763670000000000293e+00 3.129680000000000017e+00 1.698989999999999867e+01 2.415700000000000069e-01 6.792819999999999858e+00 3.490400000000000169e-01
1.441400000000000015e+00 1.569819999999999993e+00 1.110909999999999975e+01 -4.351499999999999813e-01 5.115249999999999631e+00 1.131140000000000079e+01 6.091520000000000046e+00 1.951980000000000048e+00 1.150350000000000072e+01 3.548610000000000042e+00 5.495049999999999990e+00 1.167699999999999960e+01 4.199239999999999640e+00 2.699980000000000047e+00 1.974739999999999895e+01 -1.470490000000000075e+00 4.746800000000000352e+00 1.835389999999999944e+01 3.713960000000000150e+00 1.093280000000000030e+00 1.376249999999999929e+01 1.540659999999999918e+00 4.027440000000000353e+00 1.485519999999999996e+01 8.159330000000000638e+00 5.595099999999999518e-01 1.012940000000000040e+01 5.768869999999999720e+00 4.296420000000000350e+00 1.026640000000000086e+01 3.951470000000000038e+00 7.837600000000000122e-01 1.064349999999999952e+01 1.665750000000000064e+00 4.103869999999999685e+00 1.039729999999999954e+01 9.321399999999999686e-01 1.594850000000000101e+00 1.372690000000000055e+01 -9.822300000000000475e-01 5.427190000000000403e+00 1.390399999999999991e+01 6.111699999999999910e+00 1.530489999999999906e+00 1.399900000000000055e+01 4.107289999999999885e+00 4.695929999999999715e+00 1.415440000000000076e+01 4.576649999999999885e+00 5.430620000000000225e+00 1.855120000000000147e+01 8.549400000000000333e-01 3.095559999999999867e+00 1.875179999999999936e+01 4.569869999999999877e+00 3.441339999999999844e+00 1.687280000000000157e+01 1.256780000000000008e+00 4.977719999999999700e+00 1.741450000000000031e+01
1.619660000000000100e+00 1.887559999999999905e+00 1.154279999999999973e+01 -9.458499999999999686e-01 5.255840000000000067e+00 1.150009999999999977e+01 6.278609999999999580e+00 8.889099999999999779e-01 1.155719999999999992e+01 3.546469999999999789e+00 5.203059999999999796e+00 1.075189999999999912e+01 2.294449999999999878e+00 7.059630000000000294e+00 1.941900000000000048e+01 5.260539999999999772e+00 3.243930000000000202e+00 1.695870000000000033e+01 3.026569999999999983e+00 5.974500000000000366e-01 1.440859999999999985e+01 1.612219999999999986e+00 4.601539999999999964e+00 1.460159999999999947e+01 7.659700000000000397e-01 9.964000000000000634e-02 9.771829999999999572e+00 5.564099999999999824e+00 3.552960000000000118e+00 1.026689999999999969e+01 3.830410000000000093e+00 2.027799999999999880e-01 1.085549999999999926e+01 1.232010000000000050e+00 3.943740000000000023e+00 1.033350000000000080e+01 7.741999999999999993e-01 1.993400000000000061e+00 1.394030000000000058e+01 -1.218990000000000018e+00 5.586000000000000298e+00 1.440659999999999918e+01 5.630510000000000126e+00 1.742639999999999967e+00 1.483200000000000074e+01 3.162479999999999958e+00 6.351460000000000328e+00 1.318249999999999922e+01 3.552299999999999791e+00 3.696639999999999926e+00 1.944979999999999976e+01 -2.936599999999999766e-01 4.153260000000000396e+00 1.705229999999999890e+01 4.494049999999999656e+00 5.588589999999999947e+00 2.266499999999999904e-01 2.207320000000000171e+00 4.141499999999999737e+00 1.679070000000000107e+01
2.210189999999999877e+00 1.965430000000000010e+00 1.164020000000000010e+01 7.512000000000000621e-02 5.599590000000000067e+00 1.113030000000000008e+01 6.497670000000000279e+00 1.977889999999999926e+00 1.105070000000000086e+01 4.491010000000000169e+00 4.904880000000000351e+00 1.102870000000000061e+01 3.952980000000000160e+00 4.786609999999999587e+00 1.864849999999999852e+01 -6.647499999999999520e-01 6.624439999999999884e+00 1.824589999999999890e+01 4.309840000000000337e+00 2.295230000000000103e+00 1.480480000000000018e+01 2.369520000000000071e+00 5.947849999999999859e+00 1.436899999999999977e+01 -3.198999999999999760e-02 7.806199999999999806e-01 1.021899999999999942e+01 -1.932569999999999899e+00 4.123639999999999972e+00 9.634529999999999816e+00 4.333999999999999631e+00 1.125639999999999974e+00 1.015760000000000041e+01 2.299889999999999990e+00 4.252399999999999736e+00 1.003720000000000034e+01 2.285429999999999851e+00 8.244500000000000162e-01 1.417340000000000089e+01 1.491099999999999925e-01 4.489279999999999937e+00 1.362010000000000076e+01 6.775879999999999903e+00 1.726439999999999975e+00 1.402699999999999925e+01 4.694650000000000212e+00 4.862289999999999779e+00 1.367409999999999926e+01 -1.953510000000000080e+00 5.539439999999999920e+00 2.686200000000000254e-01 -3.817429999999999879e+00 6.794290000000000163e+00 5.999999999999999474e-04 3.909769999999999968e+00 2.306420000000000137e+00 1.770210000000000150e+01 1.553970000000000073e+00 5.329609999999999737e+00 1.733899999999999864e+01
2.033339999999999925e+00 1.277940000000000076e+00 1.136960000000000015e+01 5.256999999999999867e-02 4.796280000000000321e+00 1.121879999999999988e+01 6.486170000000000435e+00 9.150800000000000045e-01 1.181039999999999957e+01 4.338840000000000252e+00 5.006409999999999805e+00 1.150479999999999947e+01 2.212899999999999867e-01 1.959000000000000075e+00 1.524029999999999951e+01 -2.109849999999999781e+00 6.101969999999999672e+00 1.456279999999999930e+01 5.287869999999999848e+00 2.174809999999999910e+00 1.626780000000000115e+01 3.060369999999999813e+00 6.223659999999999748e+00 1.782979999999999876e+01 4.013510000000000133e+00 7.468090000000000117e+00 1.031520000000000081e+01 6.261470000000000091e+00 3.201509999999999856e+00 1.054100000000000037e+01 1.098800000000000054e-01 7.449659999999999727e+00 1.060459999999999958e+01 2.347679999999999989e+00 3.576010000000000133e+00 1.011129999999999995e+01 2.573069999999999968e+00 1.150190000000000046e+00 1.395079999999999920e+01 1.432700000000000085e-01 4.826260000000000439e+00 1.375709999999999944e+01 6.578260000000000218e+00 5.182999999999999829e-01 1.427469999999999928e+01 4.466459999999999653e+00 4.501999999999999780e+00 1.420330000000000048e+01 -2.443999999999999992e-02 3.734949999999999992e+00 1.843309999999999960e+01 -2.079950000000000188e+00 6.699360000000000426e+00 1.700710000000000122e+01 1.887399999999999911e-01 5.316690000000000360e+00 7.456999999999999740e-02 -3.226899999999999769e-01 7.589940000000000353e+00 1.922520000000000095e+01