3.757299999999999862e+00 1.639669999999999961e+00 1.127979999999999983e+01 9.866899999999999560e-01 4.925300000000000011e+00 1.081550000000000011e+01 7.128510000000000346e+00 1.461379999999999901e+00 1.061139999999999972e+01 -2.790859999999999896e+00 6.638029999999999653e+00 1.348639999999999972e+01 6.328319999999999723e+00 2.040770000000000195e+00 1.823440000000000083e+01 4.248160000000000380e+00 5.016779999999999795e+00 1.733129999999999882e+01 2.770259999999999945e+00 8.706000000000000405e-01 1.729990000000000094e+01 1.210040000000000004e+00 6.843980000000000175e+00 1.447080000000000055e+01 1.375369999999999981e+00 1.960800000000000043e-01 1.102870000000000061e+01 -6.691500000000000226e-01 3.619099999999999984e+00 9.244229999999999947e+00 4.978360000000000340e+00 1.931200000000000139e-01 9.484389999999999432e+00 3.408170000000000144e+00 4.236060000000000159e+00 1.139400000000000013e+01 1.975579999999999892e+00 1.658940000000000081e+00 1.475179999999999936e+01 -3.697599999999999776e-01 5.049820000000000420e+00 1.321269999999999989e+01 5.824230000000000018e+00 1.850950000000000095e+00 1.298820000000000086e+01 3.483150000000000190e+00 5.225290000000000212e+00 1.485469999999999935e+01 4.298399999999999999e-01 2.634199999999999875e-01 1.826829999999999998e+01 -1.313790000000000013e+00 3.960170000000000190e+00 1.663129999999999953e+01 9.867500000000000160e-01 6.581590000000000273e+00 1.719869999999999877e+01 3.470839999999999925e+00 3.099670000000000147e+00 1.890210000000000079e+01
3.113199999999999967e+00 2.257960000000000189e+00 1.182920000000000016e+01 4.202500000000000124e-01 5.204839999999999911e+00 1.064600000000000080e+01 6.686449999999999783e+00 1.488469999999999960e+00 1.058890000000000065e+01 -2.389590000000000103e+00 7.080359999999999765e+00 1.374890000000000079e+01 5.995840000000000281e+00 1.609320000000000084e+00 1.819780000000000086e+01 4.413509999999999600e+00 4.934409999999999741e+00 1.727520000000000167e+01 2.508199999999999985e+00 1.142339999999999911e+00 1.722690000000000055e+01 1.362489999999999979e+00 6.810109999999999886e+00 1.411219999999999963e+01 1.170260000000000078e+00 4.565600000000000214e-01 1.127500000000000036e+01 -8.615500000000000380e-01 3.507070000000000132e+00 9.069720000000000226e+00 4.331680000000000419e+00 5.341799999999999882e-01 9.901040000000000063e+00 2.995890000000000164e+00 4.824060000000000237e+00 1.080640000000000001e+01 1.885490000000000110e+00 2.047800000000000065e+00 1.472150000000000070e+01 -3.791700000000000070e-01 5.127620000000000289e+00 1.328330000000000055e+01 5.549150000000000027e+00 1.896600000000000064e+00 1.301069999999999993e+01 3.549040000000000195e+00 5.533290000000000042e+00 1.459580000000000055e+01 -3.702290000000000081e+00 7.156799999999999606e+00 1.849429999999999907e+01 -1.139049999999999896e+00 3.653519999999999879e+00 1.684130000000000038e+01 5.064699999999999758e-01 6.936530000000000307e+00 1.689140000000000086e+01 3.741849999999999898e+00 2.959789999999999921e+00 1.892950000000000088e+01
2.227510000000000101e+00 2.178160000000000096e+00 1.035440000000000005e+01 3.714600000000000124e-01 5.102699999999999569e+00 1.085089999999999932e+01 6.811359999999999637e+00 1.546249999999999902e+00 1.116890000000000072e+01 -2.379430000000000156e+00 6.740890000000000271e+00 1.350769999999999982e+01 -6.690599999999999881e-01 1.412959999999999994e+00 1.667790000000000106e+01 5.130340000000000344e+00 4.658610000000000362e+00 1.731360000000000099e+01 3.118840000000000057e+00 1.171629999999999949e+00 1.746359999999999957e+01 1.858999999999999986e+00 6.657989999999999853e+00 1.426800000000000068e+01 -3.463010000000000144e+00 6.893469999999999764e+00 1.107000000000000028e+01 -8.100199999999999623e-01 3.441780000000000062e+00 9.357509999999999550e+00 4.621100000000000207e+00 6.980699999999999683e-01 1.011289999999999978e+01 2.839739999999999931e+00 4.563509999999999955e+00 1.121749999999999936e+01 1.981530000000000014e+00 1.838370000000000060e+00 1.500479999999999947e+01 -1.966400000000000092e-01 5.025750000000000384e+00 1.363170000000000037e+01 6.268909999999999982e+00 1.974420000000000064e+00 1.364809999999999945e+01 4.022369999999999557e+00 4.891219999999999679e+00 1.483440000000000047e+01 -3.116639999999999855e+00 7.106010000000000382e+00 1.852169999999999916e+01 -7.466300000000000159e-01 3.579680000000000195e+00 1.795639999999999858e+01 5.385229999999999961e+00 6.272999999999999410e-02 1.676899999999999835e+01 3.349860000000000060e+00 3.530159999999999965e+00 1.863329999999999842e+01
2.146450000000000191e+00 1.472960000000000047e+00 9.973660000000000636e+00 8.268199999999999994e-01 4.918350000000000222e+00 1.102759999999999962e+01 6.232850000000000001e+00 1.444169999999999954e+00 1.125740000000000052e+01 -2.654110000000000191e+00 7.327810000000000379e+00 1.363729999999999976e+01 -6.148799999999999821e-01 1.783409999999999940e+00 1.683879999999999910e+01 4.732230000000000381e+00 4.966420000000000279e+00 1.731469999999999843e+01 3.027880000000000127e+00 1.608680000000000110e+00 1.703810000000000002e+01 1.461959999999999926e+00 7.152739999999999654e+00 1.454490000000000016e+01 -3.626079999999999970e+00 7.206889999999999574e+00 1.127110000000000056e+01 -4.309499999999999997e-01 3.113440000000000207e+00 9.627129999999999299e+00 3.078000000000000180e-01 7.213009999999999700e+00 9.810560000000000613e+00 2.987880000000000091e+00 3.432150000000000034e+00 1.159919999999999973e+01 1.583550000000000013e+00 2.048649999999999860e+00 1.490409999999999968e+01 -4.723700000000000121e-01 5.638709999999999667e+00 1.349189999999999934e+01 5.451819999999999666e+00 2.199720000000000120e+00 1.370229999999999926e+01 3.515890000000000182e+00 5.443559999999999732e+00 1.482729999999999926e+01 7.554199999999999804e-01 3.497600000000000153e-01 1.846979999999999933e+01 -7.195000000000000284e-01 4.363430000000000142e+00 1.734159999999999968e+01 5.245260000000000034e+00 1.970600000000000129e-01 1.701520000000000010e+01 2.848869999999999791e+00 3.784370000000000012e+00 1.865729999999999933e+01
