-6.980221002000000396e+01
-6.978617599999999754e+01
-6.948200889999999674e+01
-6.955707891999999504e+01
