7.943526224000000191e+00 0.000000000000000000e+00 0.000000000000000000e+00 -3.948272484999999943e+00 6.914532269000000397e+00 0.000000000000000000e+00 5.122999999999999909e-06 -3.882000000000000271e-06 2.165090887499999894e+01
7.867738609999999966e+00 0.000000000000000000e+00 0.000000000000000000e+00 -3.910602797000000130e+00 6.848562084000000105e+00 0.000000000000000000e+00 5.074000000000000039e-06 -3.844999999999999609e-06 2.144434183199999921e+01
7.851539630000000436e+00 0.000000000000000000e+00 0.000000000000000000e+00 -3.902551211000000020e+00 6.834461497999999580e+00 0.000000000000000000e+00 5.062999999999999636e-06 -3.836999999999999855e-06 2.140018982300000161e+01
7.678904061999999975e+00 0.000000000000000000e+00 0.000000000000000000e+00 -3.816743945999999887e+00 6.684188915000000009e+00 0.000000000000000000e+00 4.952000000000000191e-06 -3.751999999999999822e-06 2.092965358500000050e+01
7.376158608999999977e+00 0.000000000000000000e+00 0.000000000000000000e+00 -3.725945048999999898e+00 6.411944937000000344e+00 0.000000000000000000e+00 5.707117390000000512e-01 3.241613199999999750e-01 2.047769502199999891e+01
7.454140492999999701e+00 0.000000000000000000e+00 0.000000000000000000e+00 -3.734578130000000051e+00 6.317280777999999763e+00 0.000000000000000000e+00 4.096731089999999798e-01 3.968548670000000000e-01 2.084445276299999961e+01
7.399076889999999906e+00 0.000000000000000000e+00 0.000000000000000000e+00 -3.737521840999999956e+00 6.431867332999999576e+00 0.000000000000000000e+00 5.724849829999999473e-01 3.251685140000000196e-01 2.054132076499999826e+01
7.429726075999999679e+00 0.000000000000000000e+00 0.000000000000000000e+00 -3.722346330000000147e+00 6.296589896999999603e+00 0.000000000000000000e+00 4.083313140000000008e-01 3.955550549999999888e-01 2.077618128599999991e+01
7.494803186000000395e+00 0.000000000000000000e+00 0.000000000000000000e+00 -3.853774865000000105e+00 6.642182445000000435e+00 0.000000000000000000e+00 -2.017564739999999912e-01 5.568927009999999900e-01 2.083354472299999927e+01
7.515260762999999677e+00 0.000000000000000000e+00 0.000000000000000000e+00 -3.796210209999999918e+00 6.532863615000000124e+00 0.000000000000000000e+00 5.814744189999999646e-01 3.302744659999999888e-01 2.086387048599999972e+01
7.417567505000000061e+00 0.000000000000000000e+00 0.000000000000000000e+00 -3.677274307999999881e+00 6.496696065000000075e+00 0.000000000000000000e+00 1.950109400000000007e-02 5.240296890000000207e-01 2.056000127500000119e+01
7.557203212000000114e+00 0.000000000000000000e+00 0.000000000000000000e+00 -3.756253415000000206e+00 6.578253033000000194e+00 0.000000000000000000e+00 4.874000000000000260e-06 -3.693000000000000048e-06 2.059794522900000047e+01
7.421140411999999742e+00 0.000000000000000000e+00 0.000000000000000000e+00 -3.815897987000000047e+00 6.576899665000000006e+00 0.000000000000000000e+00 -1.997735069999999891e-01 5.514192730000000431e-01 2.062878194700000023e+01
7.994358045000000246e+00 0.000000000000000000e+00 0.000000000000000000e+00 -3.973538076000000085e+00 6.958779404000000390e+00 0.000000000000000000e+00 5.154999999999999772e-06 -3.907000000000000032e-06 2.178945630400000155e+01
7.263424850999999904e+00 0.000000000000000000e+00 0.000000000000000000e+00 -3.734801759000000221e+00 6.437126077000000279e+00 0.000000000000000000e+00 -1.955278809999999867e-01 5.397004010000000518e-01 2.019037494499999852e+01
8.047744087999999962e+00 0.000000000000000000e+00 0.000000000000000000e+00 -4.000073224000000316e+00 7.005249888999999897e+00 0.000000000000000000e+00 5.190000000000000284e-06 -3.933000000000000291e-06 2.193496552999999949e+01
7.569969706000000187e+00 0.000000000000000000e+00 0.000000000000000000e+00 -3.823845533000000074e+00 6.580420989000000276e+00 0.000000000000000000e+00 5.857073860000000520e-01 3.326787700000000125e-01 2.101575348200000093e+01
7.514790597000000183e+00 0.000000000000000000e+00 0.000000000000000000e+00 -3.795972713999999915e+00 6.532454910000000226e+00 0.000000000000000000e+00 5.814380409999999610e-01 3.302538039999999842e-01 2.086256521299999989e+01
8.010360328999999169e+00 0.000000000000000000e+00 0.000000000000000000e+00 -3.981491895000000003e+00 6.972708771999999833e+00 0.000000000000000000e+00 5.166000000000000175e-06 -3.914000000000000134e-06 2.183307219599999982e+01
7.582954273000000356e+00 0.000000000000000000e+00 0.000000000000000000e+00 -3.899101531999999981e+00 6.720305323999999914e+00 0.000000000000000000e+00 -2.041294580000000136e-01 5.634426660000000364e-01 2.107858112599999956e+01
7.344274085000000341e+00 0.000000000000000000e+00 0.000000000000000000e+00 -3.679534267000000192e+00 6.224170519000000290e+00 0.000000000000000000e+00 4.036349459999999945e-01 3.910056319999999919e-01 2.053722684299999912e+01
7.839008214999999780e+00 0.000000000000000000e+00 0.000000000000000000e+00 -3.896322561999999934e+00 6.823553386999999582e+00 0.000000000000000000e+00 5.054999999999999882e-06 -3.831000000000000251e-06 2.136603414700000059e+01
7.420995768000000048e+00 0.000000000000000000e+00 0.000000000000000000e+00 -3.678973876000000143e+00 6.499698719000000402e+00 0.000000000000000000e+00 1.951010699999999876e-02 5.242718859999999648e-01 2.056950372800000082e+01
7.512680245000000312e+00 0.000000000000000000e+00 0.000000000000000000e+00 -3.734123594999999796e+00 6.539497511999999624e+00 0.000000000000000000e+00 4.845000000000000199e-06 -3.671000000000000089e-06 2.047659323999999970e+01
7.555269754000000226e+00 0.000000000000000000e+00 0.000000000000000000e+00 -3.884866348000000080e+00 6.695770239999999873e+00 0.000000000000000000e+00 -2.033842040000000129e-01 5.613855989999999574e-01 2.100162558099999899e+01
7.387385147999999901e+00 0.000000000000000000e+00 0.000000000000000000e+00 -3.701133220000000001e+00 6.260706547999999927e+00 0.000000000000000000e+00 4.060042930000000161e-01 3.933008439999999828e-01 2.065778085299999844e+01
