2.954400000000000137e+00 4.607980000000000409e+00 1.926708999999999961e+01 5.005279999999999951e+00 3.203549999999999898e+00 5.440129999999999910e+00 -1.086300000000000043e-01 5.194880000000000386e+00 1.139329000000000036e+01 1.161939999999999973e+00 1.845890000000000031e+00 2.000488999999999962e+01 -1.882999999999999952e-01 4.420729999999999826e+00 1.793798999999999921e+01 2.461949999999999861e+00 6.440949999999999953e+00 5.903990000000000293e+00 3.533319999999999794e+00 4.985310000000000130e+00 1.351459000000000010e+01 6.225740000000000052e+00 1.156979999999999897e+00 1.201878999999999920e+01 1.583490000000000064e+00 1.402150000000000007e+00 1.210948999999999920e+01 3.285070000000000157e+00 1.631029999999999980e+00 1.737299000000000149e+01 -8.770499999999999963e-01 6.159489999999999910e+00 6.186009999999999565e+00 5.260200000000000431e-01 4.081030000000000157e+00 4.771209999999999951e+00 7.232809999999999739e+00 8.184299999999999908e-01 1.442309000000000019e+01 2.519239999999999924e+00 5.528260000000000396e+00 1.097208999999999968e+01 4.237699999999999800e-01 1.923040000000000083e+00 1.742418999999999940e+01 -1.708329999999999904e+00 5.461599999999999788e+00 1.310028999999999932e+01 4.617210000000000036e+00 1.365490000000000093e+00 7.266029999999999767e+00 1.262499999999999956e+00 4.325400000000000134e+00 7.307489999999999597e+00 5.989299999999999624e-01 4.762669999999999959e+00 2.048289000000000115e+01 4.450650000000000439e+00 5.563860000000000028e+00 7.470810000000000173e+00 6.547819999999999752e+00 1.675929999999999920e+00 3.773410000000000153e+00 1.788750000000000062e+00 3.156280000000000197e+00 1.409338999999999942e+01 -3.648169999999999913e+00 6.568369999999999820e+00 2.096668999999999983e+01 3.858999999999999986e+00 9.244700000000000140e-01 1.075081999999999915e+01 4.400820000000000398e+00 3.873829999999999885e+00 1.716709000000000174e+01 -9.903399999999999981e-01 6.224429999999999907e+00 1.621398999999999901e+01 -1.771989999999999954e+00 5.246950000000000003e+00 3.905769999999999964e+00 3.598660000000000192e+00 2.202910000000000146e+00 2.016159000000000034e+01 2.533679999999999932e+00 4.937109999999999665e+00 3.696979999999999933e+00 1.301299999999999957e-01 2.429100000000000037e+00 1.020630000000000059e+01
1.714730000000000087e+00 5.090329999999999799e+00 1.971850999999999843e+01 3.864110000000000156e+00 4.343460000000000321e+00 5.323050000000000281e+00 -8.954199999999999937e-01 3.933829999999999938e+00 1.131570999999999927e+01 -2.357299999999999951e-01 1.818510000000000071e+00 1.982340999999999909e+01 -1.689799999999999969e+00 4.990339999999999776e+00 1.833931000000000111e+01 5.802109999999999879e+00 1.445829999999999949e+00 4.409239999999999604e+00 4.224260000000000126e+00 4.427620000000000111e+00 1.394331000000000031e+01 2.760860000000000092e+00 6.410169999999999924e+00 1.125121000000000038e+01 3.967700000000000116e-01 6.602579999999999671e+00 1.386680999999999919e+01 3.841549999999999798e+00 1.889420000000000099e+00 1.734510999999999825e+01 2.113710000000000200e+00 1.141899999999999915e+00 3.658450000000000202e+00 -3.892700000000000049e-01 5.393849999999999589e+00 5.982800000000000118e+00 3.045059999999999878e+00 6.831120000000000303e+00 1.405211000000000077e+01 4.263160000000000061e+00 4.192610000000000170e+00 1.129560999999999993e+01 -1.355290000000000106e+00 2.465100000000000069e+00 1.758201000000000036e+01 -5.044899999999999940e-01 4.021930000000000227e+00 1.409530999999999956e+01 5.909650000000000070e+00 3.054089999999999971e+00 6.703859999999999708e+00 1.888030000000000097e+00 6.285829999999999806e+00 6.445389999999999731e+00 -8.459799999999999542e-01 4.063559999999999839e+00 2.076161000000000101e+01 1.398179999999999978e+00 3.720300000000000273e-01 6.103019999999999889e+00 -2.744500000000000273e-01 8.254200000000000426e-01 2.427960000000000118e+00 3.352710000000000079e+00 2.091330000000000133e+00 1.464470999999999989e+01 3.014460000000000139e+00 6.709509999999999863e+00 2.139800999999999931e+01 7.122000000000000552e-02 6.355540000000000411e+00 1.117971000000000004e+01 3.704009999999999803e+00 4.867539999999999978e+00 1.724931000000000125e+01 3.332499999999999907e-01 6.064669999999999561e+00 1.724361000000000033e+01 -2.104800000000000004e-01 5.800229999999999997e+00 3.503400000000000070e+00 2.005079999999999973e+00 6.640300000000000091e-01 1.922321000000000168e+01 4.105489999999999640e+00 2.861419999999999852e+00 2.987270000000000092e+00 -6.326000000000000512e-01 1.616989999999999927e+00 9.741540000000000532e+00
1.765200000000000102e+00 5.178180000000000227e+00 1.965522999999999954e+01 3.797629999999999839e+00 4.377930000000000099e+00 5.384070000000000356e+00 -8.419999999999999707e-01 3.905980000000000008e+00 1.131372999999999962e+01 -2.249500000000000111e-01 1.808070000000000066e+00 1.980332999999999899e+01 -1.678080000000000016e+00 4.879830000000000112e+00 1.838213000000000008e+01 5.832690000000000374e+00 1.357739999999999947e+00 4.397420000000000329e+00 4.240289999999999893e+00 4.494180000000000064e+00 1.399183000000000021e+01 2.809740000000000126e+00 6.448070000000000412e+00 1.119903000000000048e+01 5.145199999999999774e-01 6.545840000000000103e+00 1.375863000000000014e+01 3.878309999999999924e+00 1.901019999999999932e+00 1.734943000000000168e+01 2.159209999999999852e+00 1.113569999999999949e+00 3.695949999999999847e+00 -4.144499999999999851e-01 5.339279999999999582e+00 5.934289999999999843e+00 2.969500000000000028e+00 6.792309999999999626e+00 1.398503000000000007e+01 4.199239999999999640e+00 4.212690000000000268e+00 1.132282999999999973e+01 6.358600000000000030e+00 2.439249999999999918e+00 1.747603000000000151e+01 -5.799699999999999855e-01 4.100939999999999586e+00 1.393052999999999919e+01 5.750200000000000422e+00 3.036360000000000170e+00 6.795609999999999928e+00 1.982809999999999961e+00 6.335790000000000255e+00 6.352009999999999934e+00 -7.551799999999999624e-01 4.021399999999999864e+00 2.065933000000000064e+01 1.333159999999999901e+00 3.204799999999999871e-01 6.031329999999999636e+00 -2.830300000000000038e-01 8.579400000000000359e-01 2.368030000000000079e+00 3.365530000000000133e+00 2.055009999999999781e+00 1.474442999999999948e+01 2.994219999999999882e+00 6.727829999999999977e+00 2.135913000000000039e+01 1.983000000000000040e-02 6.320319999999999716e+00 1.108192999999999984e+01 3.649509999999999810e+00 4.843820000000000014e+00 1.733072999999999908e+01 3.596500000000000252e-01 5.995680000000000121e+00 1.714123000000000019e+01 -2.337299999999999933e-01 5.696500000000000341e+00 3.421850000000000058e+00 1.959529999999999994e+00 7.090400000000000036e-01 1.917812999999999946e+01 4.096750000000000114e+00 2.882460000000000022e+00 2.938569999999999904e+00 -6.729199999999999626e-01 1.711510000000000087e+00 9.803060000000000329e+00
2.274529999999999941e+00 5.115829999999999878e+00 1.986665999999999954e+01 3.654619999999999980e+00 3.554580000000000073e+00 4.432570000000000121e+00 5.494499999999999940e-01 4.265310000000000379e+00 1.157216000000000022e+01 1.189299999999999941e-01 2.143279999999999852e+00 1.909555999999999898e+01 -1.859129999999999949e+00 5.022160000000000402e+00 1.772296000000000049e+01 6.407890000000000086e+00 3.593700000000000228e-01 5.445990000000000109e+00 4.056020000000000181e+00 3.465399999999999814e+00 1.265315999999999974e+01 6.174900000000000055e+00 3.294400000000000106e-01 1.167706000000000088e+01 3.623500000000000054e-01 6.565900000000000070e+00 1.435106000000000037e+01 4.009870000000000267e+00 2.279040000000000177e+00 1.689905999999999864e+01 -9.128300000000000303e-01 6.479119999999999990e+00 4.290300000000000225e+00 2.370599999999999929e-01 4.216160000000000352e+00 3.399760000000000115e+00 3.377639999999999976e+00 6.432549999999999990e+00 1.392056000000000004e+01 3.074949999999999850e+00 4.602689999999999948e+00 1.042557000000000045e+01 -1.100629999999999997e+00 2.677599999999999980e+00 1.697625999999999991e+01 -6.187599999999999767e-01 3.919210000000000083e+00 1.386375999999999920e+01 3.886309999999999931e+00 1.349490000000000078e+00 6.107630000000000337e+00 1.229060000000000041e+00 4.300399999999999778e+00 5.758219999999999672e+00 -5.321299999999999919e-01 4.418689999999999785e+00 2.021956000000000131e+01 -2.935119999999999951e+00 5.686200000000000365e+00 6.250469999999999970e+00 6.350209999999999688e+00 1.828629999999999978e+00 3.213670000000000027e+00 2.987989999999999924e+00 2.470289999999999875e+00 1.467716000000000065e+01 -3.636019999999999808e+00 6.644400000000000084e+00 2.072156000000000020e+01 3.353759999999999852e+00 3.149199999999999777e-01 1.185416000000000025e+01 3.597799999999999887e+00 5.326670000000000016e+00 1.702006000000000085e+01 4.557499999999999885e-01 6.073179999999999801e+00 1.683726000000000056e+01 -7.454499999999999460e-01 5.753490000000000215e+00 1.702749999999999986e+00 2.689849999999999852e+00 2.751259999999999817e+00 1.934616000000000113e+01 3.009630000000000027e+00 3.761109999999999953e+00 1.864970000000000017e+00 5.863069999999999560e+00 2.884230000000000071e+00 1.081025999999999954e+01
3.602790000000000159e+00 5.606799999999999562e-01 1.957576999999999856e+01 5.945710000000000051e+00 2.028200000000000003e+00 6.606329999999999814e+00 4.959760000000000169e+00 4.144120000000000026e+00 1.039316999999999958e+01 -2.716600000000000126e-01 2.478839999999999932e+00 1.942657000000000167e+01 5.314029999999999809e+00 4.542559999999999931e+00 1.720317000000000007e+01 1.173310000000000075e+00 2.575019999999999865e+00 3.492179999999999840e+00 2.678510000000000169e+00 4.070619999999999905e+00 1.289897000000000027e+01 5.485240000000000116e+00 2.895400000000000196e-01 1.037467000000000006e+01 -9.574300000000000033e-01 6.524829999999999686e+00 1.302826999999999913e+01 2.004550000000000054e+00 2.572430000000000216e+00 1.629176999999999964e+01 4.462159999999999904e+00 3.043399999999999994e-01 3.548639999999999795e+00 2.825950000000000184e+00 4.549610000000000376e+00 6.253140000000000143e+00 1.755640000000000089e+00 6.525879999999999903e+00 1.308257000000000048e+01 2.310989999999999878e+00 4.068520000000000358e+00 1.006609000000000087e+01 6.501900000000000013e+00 2.258560000000000123e+00 1.681766999999999967e+01 5.426160000000000316e+00 3.883389999999999898e+00 1.302426999999999957e+01 1.000909999999999966e+00 1.942930000000000046e+00 6.120560000000000223e+00 4.899160000000000181e+00 4.472870000000000346e+00 6.989379999999999704e+00 -1.892879999999999896e+00 4.942129999999999690e+00 1.980746999999999858e+01 7.392999999999999572e-01 6.481519999999999726e+00 6.476709999999999745e+00 -1.704599999999999893e+00 6.306409999999999627e+00 2.558030000000000026e+00 1.128360000000000030e+00 2.134329999999999838e+00 1.335327000000000019e+01 2.175120000000000164e+00 6.587880000000000180e+00 2.006747000000000014e+01 -9.831499999999999684e-01 6.370070000000000121e+00 1.012828000000000017e+01 2.932519999999999794e+00 4.816049999999999720e+00 1.574117000000000033e+01 -3.860999999999999988e-01 6.616369999999999862e+00 1.621477000000000146e+01 2.686409999999999965e+00 4.536150000000000126e+00 3.415929999999999911e+00 2.460770000000000124e+00 2.829629999999999868e+00 1.943727000000000160e+01 6.035199999999999676e+00 2.459630000000000205e+00 3.005399999999999849e+00 -8.032500000000000195e-01 2.431049999999999933e+00 9.630729999999999791e+00
1.805020000000000069e+00 5.632500000000000284e-01 4.241800000000000015e-01 -1.208539999999999948e+00 2.433219999999999938e+00 6.329799999999999649e+00 -1.564519999999999911e+00 4.538549999999999862e+00 9.917410000000000281e+00 5.997510000000000119e+00 2.650700000000000056e+00 2.001024999999999920e+01 5.542489999999999917e+00 3.731059999999999821e+00 1.632075000000000031e+01 4.217899999999999983e-01 2.564540000000000042e+00 3.113459999999999894e+00 2.916630000000000056e+00 4.205829999999999735e+00 1.273814999999999920e+01 5.417510000000000048e+00 6.463299999999999601e-01 1.063824999999999932e+01 -6.446699999999999653e-01 6.413750000000000284e+00 1.367624999999999957e+01 2.101090000000000124e+00 2.288910000000000000e+00 1.678444999999999965e+01 1.307639999999999914e+00 6.297930000000000028e+00 1.823690000000000033e+00 2.450899999999999856e+00 4.636110000000000397e+00 6.059330000000000105e+00 2.050100000000000033e+00 6.467200000000000060e+00 1.339695000000000036e+01 3.004809999999999981e+00 4.371649999999999814e+00 9.961729999999999308e+00 6.786819999999999631e+00 1.590750000000000108e+00 1.714014999999999844e+01 -1.802839999999999998e+00 3.788590000000000124e+00 1.307784999999999975e+01 1.372370000000000090e+00 1.846600000000000019e+00 5.999729999999999563e+00 -2.246609999999999996e+00 4.649060000000000414e+00 6.898390000000000022e+00 4.167110000000000092e+00 4.894389999999999574e+00 2.033194999999999908e+01 4.953700000000000436e+00 1.841800000000000104e-01 7.833210000000000228e+00 2.488939999999999930e+00 1.503500000000000114e-01 2.802280000000000104e+00 1.866670000000000051e+00 2.427430000000000199e+00 1.404715000000000025e+01 8.904199999999999893e-01 6.567230000000000345e+00 2.009155000000000157e+01 2.817639999999999922e+00 5.969900000000000206e-01 1.049394999999999989e+01 3.279469999999999885e+00 4.090270000000000294e+00 1.798045000000000115e+01 -4.077700000000000213e-01 5.931460000000000399e+00 1.636335000000000051e+01 2.128690000000000193e+00 4.351930000000000298e+00 3.353029999999999955e+00 6.889100000000000223e-01 2.775290000000000035e+00 6.648999999999999355e-02 5.424260000000000304e+00 2.168839999999999879e+00 3.334119999999999973e+00 -4.250999999999999918e-02 2.512410000000000032e+00 9.785690000000000666e+00
1.338999999999999913e-01 6.461159999999999570e+00 2.011718000000000117e+01 -1.228180000000000049e+00 2.721620000000000150e+00 6.422729999999999606e+00 4.979350000000000165e+00 4.670569999999999666e+00 9.660199999999999676e+00 3.531999999999999723e-02 2.046899999999999942e+00 1.959487999999999985e+01 -1.261579999999999924e+00 4.409390000000000143e+00 1.674487999999999843e+01 3.046200000000000019e-01 1.097660000000000080e+00 4.044249999999999901e+00 2.303209999999999980e+00 4.069029999999999703e+00 1.229958000000000062e+01 4.684590000000000032e+00 8.523300000000000320e-01 1.076587999999999923e+01 -2.736540000000000195e+00 6.099289999999999878e+00 1.388377999999999979e+01 2.021209999999999951e+00 2.582279999999999909e+00 1.665887999999999991e+01 4.401349999999999874e+00 1.536599999999999966e+00 3.418600000000000083e+00 2.605199999999999960e+00 4.359359999999999680e+00 5.002239999999999576e+00 2.273210000000000175e+00 6.605749999999999567e+00 1.358758000000000088e+01 1.965850000000000097e+00 4.912650000000000183e+00 9.960050000000000736e+00 -4.926099999999999923e-01 1.965289999999999981e+00 1.727797999999999945e+01 4.821390000000000065e+00 3.838960000000000150e+00 1.244867999999999952e+01 1.722369999999999957e+00 2.047449999999999992e+00 6.366869999999999585e+00 4.738610000000000433e+00 4.763300000000000090e+00 7.078260000000000218e+00 -1.385019999999999918e+00 4.346919999999999895e+00 1.985788000000000153e+01 5.441709999999999603e+00 1.894800000000000095e-01 5.735619999999999941e+00 -1.036969999999999947e+00 5.939960000000000129e+00 2.988550000000000040e+00 1.141720000000000068e+00 2.580989999999999895e+00 1.415367999999999959e+01 1.984509999999999996e+00 5.946950000000000180e+00 4.237400000000000055e-01 2.016169999999999796e+00 9.112500000000000044e-01 1.070327999999999946e+01 3.630180000000000184e+00 4.626389999999999780e+00 1.633068000000000097e+01 -3.669999999999999929e-01 6.427419999999999689e+00 1.566577999999999982e+01 3.014559999999999906e+00 3.620870000000000033e+00 2.652740000000000098e+00 2.538590000000000124e+00 2.441089999999999982e+00 1.937768000000000157e+01 -5.736299999999999732e-01 3.486320000000000086e+00 3.405909999999999993e+00 6.182059999999999889e+00 2.469510000000000094e+00 9.346259999999999124e+00
1.790960000000000107e+00 4.576399999999999912e-01 3.495699999999999918e-01 -1.117690000000000072e+00 2.453850000000000087e+00 6.339640000000000164e+00 -1.627110000000000056e+00 4.559230000000000338e+00 9.908400000000000318e+00 6.046879999999999811e+00 2.673360000000000181e+00 1.994980999999999938e+01 5.475159999999999805e+00 3.715910000000000046e+00 1.617611000000000132e+01 3.642099999999999782e-01 2.459239999999999871e+00 3.180250000000000021e+00 2.984360000000000124e+00 4.246690000000000076e+00 1.264110999999999940e+01 5.456190000000000317e+00 6.251200000000000090e-01 1.064270999999999923e+01 -6.951600000000000001e-01 6.338960000000000150e+00 1.360781000000000063e+01 2.089920000000000222e+00 2.282309999999999839e+00 1.664690999999999832e+01 1.296740000000000004e+00 6.282709999999999795e+00 1.732629999999999892e+00 2.414699999999999847e+00 4.703820000000000334e+00 6.098099999999999632e+00 2.086869999999999781e+00 6.329250000000000043e+00 1.337991000000000064e+01 2.935799999999999965e+00 4.421780000000000044e+00 9.964410000000000878e+00 6.917500000000000426e+00 1.650730000000000031e+00 1.710080999999999918e+01 -1.765660000000000007e+00 3.756040000000000045e+00 1.307301000000000002e+01 1.482399999999999940e+00 1.828689999999999927e+00 6.024110000000000298e+00 -2.302900000000000169e+00 4.603410000000000224e+00 6.890179999999999971e+00 4.127410000000000245e+00 4.888600000000000279e+00 2.031550999999999974e+01 4.865809999999999746e+00 2.238199999999999912e-01 7.773299999999999876e+00 2.530839999999999979e+00 2.444999999999999951e-01 2.841559999999999864e+00 1.827860000000000040e+00 2.298179999999999890e+00 1.396120999999999945e+01 9.100000000000000311e-01 6.617639999999999745e+00 1.998281000000000063e+01 2.724369999999999958e+00 6.592500000000000027e-01 1.048991000000000007e+01 3.284460000000000157e+00 4.122489999999999988e+00 1.799270999999999887e+01 -3.458100000000000063e-01 5.834130000000000038e+00 1.635110999999999848e+01 2.089069999999999983e+00 4.297780000000000378e+00 3.336850000000000094e+00 1.058820000000000094e+00 3.196309999999999985e+00 2.077361000000000146e+01 5.353550000000000253e+00 2.246500000000000163e+00 3.379509999999999792e+00 -9.854999999999999871e-02 2.400819999999999954e+00 9.729129999999999612e+00
2.052319999999999922e+00 9.986300000000000177e-01 2.045320999999999856e+01 5.958680000000000199e+00 2.221849999999999881e+00 6.437850000000000072e+00 4.893970000000000375e+00 4.166249999999999787e+00 9.815229999999999677e+00 5.965629999999999988e+00 2.489310000000000134e+00 1.346700000000000119e-01 -2.629249999999999865e+00 4.903749999999999609e+00 1.787240999999999858e+01 1.059560000000000057e+00 2.796310000000000073e+00 3.127870000000000150e+00 3.200239999999999974e+00 4.778450000000000308e+00 1.419461000000000084e+01 1.513160000000000061e+00 6.567389999999999617e+00 1.028101000000000020e+01 2.271650000000000169e+00 7.283899999999999819e-01 1.228810999999999964e+01 4.495100000000000207e-01 1.586600000000000010e+00 1.642511000000000010e+01 4.706369999999999720e+00 2.540399999999999880e-01 2.850290000000000212e+00 2.213830000000000187e+00 4.367799999999999905e+00 6.586030000000000051e+00 9.862800000000000455e-01 6.206030000000000157e+00 1.292600999999999978e+01 2.238519999999999843e+00 4.004269999999999996e+00 9.508530000000000371e+00 -1.561909999999999910e+00 3.557479999999999976e+00 1.588560999999999979e+01 -1.772180000000000089e+00 4.161059999999999981e+00 1.322841000000000022e+01 1.181329999999999991e+00 2.225000000000000089e+00 5.905640000000000001e+00 -2.531820000000000181e+00 4.665750000000000064e+00 6.821100000000000385e+00 4.477219999999999978e+00 5.193730000000000402e+00 2.052961000000000169e+01 1.001710000000000100e+00 6.642769999999999619e+00 6.682260000000000311e+00 2.068970000000000198e+00 2.439199999999999979e-01 2.621620000000000061e+00 1.438209999999999988e+00 2.609519999999999840e+00 1.384970999999999997e+01 4.902510000000000367e+00 1.789399999999999880e-01 7.900999999999999690e-02 -1.447889999999999899e+00 6.740929999999999644e+00 9.849190000000000111e+00 2.711850000000000094e+00 5.832169999999999632e+00 1.667110999999999876e+01 2.375820000000000043e+00 5.375799999999999468e-01 1.774100999999999928e+01 2.688520000000000021e+00 4.769319999999999560e+00 3.518749999999999822e+00 1.031779999999999919e+00 2.885879999999999779e+00 2.722600000000000020e-01 5.471180000000000376e+00 2.670859999999999790e+00 2.705509999999999859e+00 -1.069080000000000030e+00 1.987519999999999953e+00 9.332489999999999952e+00
1.988399999999999945e+00 1.068800000000000028e-01 5.213600000000000456e-01 -9.187199999999999811e-01 2.063930000000000042e+00 7.163179999999999659e+00 -1.993339999999999890e+00 4.629749999999999588e+00 9.531919999999999504e+00 -5.681699999999999529e-01 2.745830000000000215e+00 1.961955000000000027e+01 -1.803520000000000012e+00 4.244309999999999583e+00 1.625515000000000043e+01 8.483899999999999775e-01 3.105750000000000011e+00 3.789480000000000182e+00 2.836730000000000196e+00 4.103080000000000283e+00 1.377764999999999951e+01 5.362919999999999909e+00 2.844400000000000261e-01 1.042089999999999961e+01 -1.375820000000000043e+00 6.299280000000000435e+00 1.336345000000000027e+01 1.510690000000000088e+00 1.851099999999999968e+00 1.628324999999999889e+01 6.291629999999999612e+00 8.055900000000000283e-01 2.316870000000000207e+00 2.678399999999999892e+00 4.499039999999999928e+00 7.424170000000000158e+00 1.422940000000000094e+00 6.051890000000000214e+00 1.298465000000000025e+01 3.004469999999999974e+00 4.279939999999999856e+00 1.023737999999999992e+01 6.534019999999999939e+00 1.792429999999999968e+00 1.701494999999999891e+01 5.486860000000000070e+00 3.815090000000000092e+00 1.345844999999999914e+01 1.433079999999999909e+00 2.338169999999999860e+00 6.144599999999999618e+00 -2.013220000000000010e+00 4.706070000000000420e+00 6.912169999999999703e+00 -1.704739999999999922e+00 5.163149999999999906e+00 1.959404999999999930e+01 1.378949999999999898e+00 6.568769999999999776e+00 7.343040000000000234e+00 1.494869999999999921e+00 5.619699999999999696e-01 2.876500000000000057e+00 1.210669999999999913e+00 2.105449999999999822e+00 1.353505000000000003e+01 6.084399999999999586e+00 6.475499999999999590e-01 2.082665000000000077e+01 2.578279999999999905e+00 4.227000000000000202e-01 1.036410000000000053e+01 2.884059999999999846e+00 3.897299999999999986e+00 1.665674999999999883e+01 -6.130900000000000238e-01 6.445669999999999789e+00 1.595655000000000001e+01 2.257989999999999942e+00 5.247010000000000396e+00 3.916650000000000187e+00 2.302459999999999951e+00 2.413580000000000059e+00 1.966055000000000064e+01 5.678659999999999819e+00 2.925079999999999902e+00 2.769029999999999880e+00 -7.055500000000000105e-01 2.512210000000000054e+00 1.012900999999999918e+01
2.631540000000000212e+00 6.474199999999999955e-01 1.971792999999999907e+01 -1.014089999999999936e+00 2.360489999999999977e+00 6.918110000000000426e+00 4.768909999999999982e+00 4.589900000000000091e+00 9.428630000000000067e+00 -9.782100000000000239e-01 3.110770000000000035e+00 2.014352999999999838e+01 4.607140000000000235e+00 4.892100000000000115e+00 1.714823000000000164e+01 1.894490000000000007e+00 2.528469999999999995e+00 3.443350000000000133e+00 2.296469999999999789e+00 4.228220000000000312e+00 1.350262999999999991e+01 6.954500000000000126e-01 6.313430000000000319e+00 9.811230000000000118e+00 -1.344030000000000058e+00 6.597470000000000390e+00 1.391843000000000075e+01 1.072529999999999983e+00 2.894179999999999975e+00 1.691572999999999993e+01 5.315129999999999910e+00 1.301499999999999879e-01 2.416259999999999852e+00 2.486520000000000064e+00 4.562669999999999781e+00 6.161089999999999733e+00 1.190949999999999953e+00 6.649840000000000195e+00 1.283003000000000071e+01 2.171250000000000124e+00 4.078570000000000029e+00 9.391989999999999839e+00 5.889940000000000175e+00 2.462979999999999947e+00 1.740643000000000029e+01 5.002510000000000012e+00 4.097809999999999953e+00 1.361572999999999922e+01 1.510280000000000067e+00 1.995179999999999954e+00 6.338250000000000384e+00 -2.189519999999999911e+00 4.656240000000000379e+00 6.607300000000000395e+00 -2.536830000000000140e+00 5.181390000000000384e+00 1.987982999999999834e+01 4.999699999999999811e+00 3.257099999999999995e-01 6.378639999999999866e+00 -1.032969999999999944e+00 6.550069999999999837e+00 2.843500000000000139e+00 6.560399999999999565e-01 2.142949999999999910e+00 1.409533000000000058e+01 1.618630000000000013e+00 6.800609999999999822e+00 2.003462999999999994e+01 1.924500000000000099e+00 6.324499999999999567e-01 9.694699999999999207e+00 2.315809999999999924e+00 5.181379999999999875e+00 1.630063000000000173e+01 -1.046149999999999913e+00 6.909900000000000375e+00 1.669802999999999926e+01 3.001310000000000144e+00 4.449959999999999916e+00 3.214780000000000193e+00 1.739470000000000072e+00 3.103839999999999932e+00 1.959483000000000175e+01 -6.127299999999999969e-01 2.261239999999999917e+00 2.200610000000000177e+00 5.778179999999999872e+00 2.314150000000000151e+00 9.803269999999999484e+00
2.064360000000000195e+00 4.974370000000000402e+00 1.880591000000000079e+01 3.043029999999999902e+00 4.040569999999999773e+00 6.607549999999999812e+00 -8.169899999999999940e-01 4.193450000000000344e+00 1.022533999999999921e+01 4.112399999999999944e-01 1.657070000000000043e+00 1.927821000000000140e+01 -1.471689999999999943e+00 4.289399999999999658e+00 1.822450999999999866e+01 5.711649999999999672e+00 1.253989999999999938e+00 4.541990000000000194e+00 3.350210000000000132e+00 4.339299999999999713e+00 1.273911000000000016e+01 6.737129999999999619e+00 2.983500000000000041e-01 1.020368000000000031e+01 3.568080000000000140e+00 1.430400000000000005e-01 1.262490999999999985e+01 4.112960000000000171e+00 1.721419999999999950e+00 1.676980999999999966e+01 1.907810000000000006e+00 2.397400000000000087e-01 4.898990000000000400e+00 9.966500000000000359e-01 3.968939999999999912e+00 3.852930000000000188e+00 6.511079999999999757e+00 2.977899999999999991e-01 1.283501000000000047e+01 2.716709999999999958e+00 4.154519999999999769e+00 1.014822999999999986e+01 -7.441900000000000182e-01 2.149859999999999882e+00 1.701181000000000054e+01 -1.114740000000000064e+00 4.271810000000000329e+00 1.302251000000000047e+01 4.067890000000000228e+00 1.763179999999999970e+00 6.709699999999999775e+00 3.216700000000000115e-01 3.711730000000000196e+00 6.255740000000000300e+00 7.434000000000000330e-02 4.172649999999999970e+00 2.042710999999999899e+01 7.315809999999999924e+00 8.333999999999999742e-02 6.714349999999999596e+00 3.967800000000000216e-01 1.570449999999999902e+00 3.009279999999999955e+00 2.710370000000000168e+00 2.033970000000000056e+00 1.413691000000000031e+01 4.212589999999999613e+00 5.363590000000000302e+00 2.025790999999999897e+01 3.936650000000000205e+00 2.233999999999999875e-02 1.009966999999999970e+01 4.249299999999999855e+00 4.668549999999999756e+00 1.656120999999999910e+01 4.008200000000000096e-01 5.612350000000000172e+00 1.685080999999999918e+01 3.790150000000000130e+00 8.090999999999999581e-02 3.063109999999999999e+00 3.184250000000000025e+00 1.971019999999999994e+00 1.933880999999999872e+01 3.601999999999999869e+00 4.440299999999999692e+00 3.585090000000000110e+00 -7.919500000000000428e-01 2.255660000000000220e+00 8.760360000000000369e+00
1.900679999999999925e+00 9.740199999999999969e-01 2.021612999999999971e+01 6.003580000000000361e+00 2.260780000000000012e+00 6.315349999999999575e+00 4.777129999999999654e+00 4.081430000000000113e+00 9.781079999999999330e+00 5.888779999999999681e+00 2.436040000000000205e+00 1.859399999999999942e-01 -2.514540000000000219e+00 4.881700000000000372e+00 1.767473000000000027e+01 9.983100000000000307e-01 2.784110000000000085e+00 3.121070000000000011e+00 3.277899999999999814e+00 4.775129999999999875e+00 1.404043000000000063e+01 1.391839999999999966e+00 6.550889999999999880e+00 1.015058999999999934e+01 2.237760000000000193e+00 6.366600000000000037e-01 1.214103000000000065e+01 4.608599999999999919e-01 1.524219999999999908e+00 1.632312999999999903e+01 4.720250000000000057e+00 1.879500000000000060e-01 2.833969999999999878e+00 2.290439999999999809e+00 4.370549999999999713e+00 6.582519999999999705e+00 9.560600000000000209e-01 6.229619999999999713e+00 1.267453000000000074e+01 2.232050000000000090e+00 3.970509999999999984e+00 9.442130000000000578e+00 -1.599499999999999922e+00 3.509799999999999809e+00 1.566183000000000014e+01 -1.750720000000000054e+00 4.186860000000000248e+00 1.308052999999999955e+01 1.177400000000000002e+00 2.185900000000000176e+00 5.841380000000000017e+00 -2.480189999999999895e+00 4.605000000000000426e+00 6.673160000000000203e+00 4.313180000000000014e+00 5.122580000000000133e+00 2.025722999999999985e+01 9.699699999999999989e-01 6.665189999999999948e+00 6.569329999999999892e+00 2.087530000000000108e+00 2.000000000000000111e-01 2.664289999999999825e+00 1.497829999999999995e+00 2.416799999999999837e+00 1.369012999999999991e+01 4.787519999999999776e+00 2.435599999999999987e-01 1.175500000000000017e-01 -1.486110000000000042e+00 6.642470000000000319e+00 9.753989999999999938e+00 2.592350000000000154e+00 5.800569999999999560e+00 1.648233000000000104e+01 2.432519999999999794e+00 5.534499999999999975e-01 1.751013000000000019e+01 2.499350000000000183e+00 4.732859999999999623e+00 3.527070000000000149e+00 1.198390000000000066e+00 2.837380000000000013e+00 3.629499999999999948e-01 5.404939999999999856e+00 2.648289999999999811e+00 2.710500000000000131e+00 -1.007870000000000044e+00 1.984019999999999895e+00 9.335089999999999222e+00