-1.003460787100000005e+02
-1.024780668899999938e+02
-1.027079241600000046e+02
-9.962030918000000668e+01
-1.043834259700000047e+02
-1.024200560900000028e+02
-1.009071944699999932e+02
-1.027319660400000032e+02
-1.031431551799999937e+02
-1.038192529300000047e+02
-1.048942050600000044e+02
-1.020435267200000027e+02
-1.032109618100000006e+02
-1.020266175600000054e+02
-1.035834314199999966e+02
-1.022903444899999954e+02
-1.002370644800000008e+02
-1.028267724899999962e+02
-1.010747115599999972e+02
-1.023790646399999957e+02
-1.034432544499999977e+02
-1.025673398299999945e+02
-1.026003929799999952e+02
-1.008243859600000008e+02
-1.028588365100000033e+02
-1.036246375199999932e+02
