6.586689999999999934e+00 4.536089999999999733e+00 1.156630000000000003e+01 2.098170000000000091e+00 4.598480000000000345e+00 1.490210000000000079e+01 -7.974200000000000177e-01 2.347529999999999895e+00 1.158230000000000004e+01 1.733049999999999979e+00 1.559299999999999908e+00 1.393089999999999939e+01 7.658450000000000202e+00 1.713810000000000056e+00 1.602070000000000149e+01 -1.260399999999999965e+00 4.522540000000000227e+00 1.567709999999999937e+01 4.080639999999999823e+00 6.686650000000000205e+00 1.279739999999999966e+01 6.794430000000000192e+00 7.132390000000000008e+00 1.642139999999999844e+01 1.070160000000000000e+00 1.631799999999999917e-01 1.140930000000000000e+01 -2.234980000000000189e+00 6.052629999999999733e+00 1.357699999999999996e+01 8.434110000000000440e+00 3.200159999999999894e+00 1.024239999999999995e+01 6.290960000000000107e+00 8.952099999999999502e-01 1.368750000000000000e+01 1.704320000000000057e+00 3.552779999999999827e+00 1.259639999999999915e+01 4.688250000000000028e+00 7.216070000000000206e+00 1.036650000000000027e+01 1.018139000000000038e+01 1.832289999999999974e+00 1.450189999999999912e+01 4.678560000000000052e+00 4.331850000000000200e+00 1.378640000000000043e+01 4.155840000000000423e+00 6.577890000000000015e+00 1.708970000000000056e+01 7.975799999999999557e+00 4.455779999999999852e+00 1.725840000000000174e+01 2.970829999999999860e+00 2.021469999999999878e+00 1.622850000000000037e+01 6.973300000000000054e-01 5.169800000000000395e+00 1.722040000000000148e+01
9.562089999999999534e+00 5.929780000000000051e+00 1.002650000000000041e+01 7.130510000000000126e+00 4.006809999999999761e+00 1.172940000000000005e+01 2.488550000000000040e+00 3.571140000000000203e+00 1.231690000000000040e+01 4.990370000000000417e+00 8.820999999999999952e-01 1.123210000000000086e+01 5.713440000000000296e+00 7.286929999999999907e+00 1.790749999999999886e+01 6.127919999999999590e+00 4.450719999999999565e+00 1.677270000000000039e+01 5.501719999999999722e+00 7.405579999999999607e+00 1.462780000000000058e+01 4.869690000000000296e+00 1.755220000000000002e+00 1.784420000000000073e+01 4.809849999999999959e+00 3.404869999999999841e+00 1.033389999999999986e+01 2.031470000000000109e+00 3.933429999999999982e+00 9.588860000000000383e+00 8.913729999999999265e+00 3.840349999999999930e+00 1.356910000000000061e+01 7.100120000000000431e+00 6.395199999999999996e+00 1.035810000000000031e+01 4.038890000000000313e+00 1.481340000000000101e+00 1.358980000000000032e+01 5.350220000000000198e+00 5.002650000000000041e+00 1.364300000000000068e+01 7.130950000000000344e+00 3.804899999999999949e-01 1.023310000000000031e+01 7.662230000000000096e+00 6.760869999999999713e+00 1.605709999999999837e+01 7.484329999999999927e+00 2.275059999999999860e+00 1.668779999999999930e+01 3.607419999999999849e+00 6.164899999999999824e-01 1.980260000000000176e+01 1.136309999999999931e+00 7.515100000000000113e-01 1.636260000000000048e+01 4.101810000000000400e+00 4.749979999999999869e+00 1.838240000000000052e+01
4.022590000000000110e+00 9.437749999999999417e+00 1.202820000000000000e+01 4.700409999999999755e+00 5.783070000000000377e+00 1.257269999999999932e+01 8.632999999999999563e-01 8.280199999999999783e-01 1.300089999999999968e+01 8.626739999999999853e+00 9.326370000000000715e+00 1.183859999999999957e+01 5.106180000000000163e+00 1.115395000000000003e+01 1.682949999999999946e+01 7.771720000000000184e+00 6.557769999999999655e+00 1.476529999999999987e+01 8.255129999999999413e+00 1.076984000000000030e+01 1.634560000000000102e+01 6.557640000000000136e+00 3.509419999999999984e+00 1.511020000000000074e+01 6.030310000000000059e+00 1.056099999999999994e+01 1.087909999999999933e+01 3.016939999999999955e+00 7.232540000000000191e+00 1.139199999999999946e+01 7.669889999999999652e+00 6.920460000000000278e+00 1.200789999999999935e+01 9.993759999999999977e+00 1.123447999999999958e+01 1.093379999999999974e+01 9.133900000000000574e+00 8.831099999999999284e+00 1.459539999999999971e+01 7.489139999999999908e+00 3.485149999999999970e+00 1.254359999999999964e+01 3.229849999999999888e+00 1.186909999999999910e+00 1.457970000000000077e+01 4.946170000000000400e+00 5.737470000000000070e+00 1.540569999999999951e+01 5.005589999999999762e+00 9.539419999999999789e+00 1.483109999999999928e+01 6.696909999999999918e+00 1.072453999999999930e+01 1.865149999999999864e+01 6.840880000000000294e+00 1.767689999999999984e+00 1.687890000000000157e+01 8.751250000000000639e+00 4.700179999999999580e+00 1.586260000000000048e+01
5.258169999999999789e+00 1.185070000000000068e+00 1.279759999999999920e+01 1.054030999999999985e+01 6.113089999999999691e+00 1.225360000000000049e+01 4.980999999999999872e+00 6.766840000000000188e+00 1.518769999999999953e+01 6.902759999999999785e+00 5.198610000000000397e+00 1.274450000000000038e+01 1.146437000000000062e+01 9.273000000000000131e-01 1.543750000000000000e+01 2.790939999999999976e+00 4.526580000000000048e+00 1.269689999999999941e+01 9.549640000000000128e+00 7.266490000000000116e+00 1.621440000000000126e+01 1.266014000000000017e+01 4.348519999999999719e+00 1.517249999999999943e+01 5.677769999999999762e+00 7.415000000000000036e+00 1.185829999999999984e+01 8.863910000000000622e+00 4.656170000000000364e+00 1.094420000000000037e+01 7.876059999999999839e+00 1.082750000000000101e+00 1.294379999999999953e+01 5.006859999999999644e+00 3.352320000000000189e+00 1.115290000000000070e+01 1.482834000000000074e+01 7.226460000000000328e+00 1.305949999999999989e+01 6.757410000000000139e+00 4.603699999999999903e+00 1.537969999999999970e+01 4.596490000000000187e+00 1.163939999999999975e+00 1.546870000000000012e+01 1.244494000000000078e+01 4.455680000000000085e+00 1.229659999999999975e+01 1.241554000000000002e+01 6.629089999999999705e+00 1.676099999999999923e+01 1.052771000000000079e+01 3.398099999999999898e+00 1.589980000000000082e+01 1.407180000000000097e+00 3.843300000000000050e-01 1.739000000000000057e+01 3.045350000000000001e+00 4.089629999999999654e+00 1.537519999999999953e+01
1.063152999999999970e+01 7.611749999999999794e+00 1.169050000000000011e+01 5.172530000000000072e+00 5.094689999999999941e+00 1.288979999999999926e+01 2.026219999999999910e+00 8.813800000000000523e-01 1.238260000000000005e+01 7.039799999999999613e+00 7.466409999999999769e+00 1.141610000000000014e+01 1.299090000000000078e+00 1.913600000000000023e-01 1.616049999999999898e+01 6.825070000000000192e+00 6.318749999999999645e+00 1.598390000000000022e+01 4.842520000000000380e+00 1.491099999999999925e-01 1.557039999999999935e+01 6.727570000000000050e+00 3.008550000000000058e+00 1.593750000000000000e+01 5.191320000000000157e+00 8.696830000000000283e+00 1.011079999999999934e+01 2.522720000000000073e+00 5.090139999999999887e+00 1.171189999999999998e+01 7.403430000000000177e+00 4.865890000000000271e+00 1.170199999999999996e+01 9.003059999999999619e+00 9.389649999999999608e+00 1.055829999999999913e+01 8.368840000000000501e+00 7.409080000000000332e+00 1.428410000000000046e+01 7.151519999999999655e+00 1.275120000000000031e+00 1.394449999999999967e+01 3.073209999999999997e+00 1.941769999999999996e+00 1.535360000000000014e+01 4.736979999999999968e+00 4.724669999999999703e+00 1.562570000000000014e+01 4.877369999999999983e+00 7.671030000000000015e+00 1.364729999999999954e+01 6.361500000000000377e+00 8.418300000000000338e+00 1.765139999999999887e+01 6.922729999999999606e+00 6.943700000000000427e-01 1.736759999999999948e+01 8.232310000000000016e+00 4.467780000000000307e+00 1.727260000000000062e+01
3.672969999999999846e+00 3.889299999999999979e-01 1.128430000000000000e+01 1.579159999999999897e+00 4.411100000000000243e+00 1.178800000000000026e+01 8.067270000000000607e+00 5.857499999999999929e-01 1.115639999999999965e+01 5.974050000000000082e+00 4.481419999999999959e+00 1.167479999999999940e+01 1.485579999999999901e+00 2.067199999999999871e-01 1.391469999999999985e+01 -2.539199999999999791e-01 5.793359999999999843e+00 1.522879999999999967e+01 3.858210000000000139e+00 5.517900000000000027e+00 1.900629999999999953e+01 -1.851699999999999902e+00 7.519379999999999953e+00 1.810559999999999903e+01 -2.665739999999999998e+00 7.313010000000000232e+00 9.761770000000000280e+00 -6.224899999999999878e-01 3.425590000000000135e+00 1.075670000000000037e+01 1.731719999999999926e+00 6.565750000000000419e+00 1.006230000000000047e+01 3.736279999999999824e+00 3.229010000000000158e+00 1.076890000000000036e+01 3.926530000000000076e+00 6.842000000000000304e-01 1.411149999999999949e+01 1.548659999999999926e+00 3.985100000000000087e+00 1.425500000000000078e+01 7.865090000000000359e+00 7.727000000000000535e-01 1.351500000000000057e+01 -2.906120000000000037e+00 5.202969999999999651e+00 1.458079999999999998e+01 2.906810000000000116e+00 2.414870000000000072e+00 1.760210000000000008e+01 -4.745400000000000174e-01 5.047010000000000218e+00 1.759440000000000026e+01 5.301700000000000301e-01 3.722400000000000153e-01 1.964369999999999905e+01 4.847669999999999924e+00 2.161910000000000220e+00 1.639199999999999946e+01
2.529799999999999827e+00 2.311669999999999892e+00 1.213870000000000005e+01 8.898450000000000415e+00 4.919389999999999930e+00 9.993719999999999715e+00 6.145150000000000112e+00 1.712919999999999998e+00 1.252989999999999959e+01 3.734669999999999934e+00 6.120400000000000285e-01 1.000960000000000072e+01 6.299050000000000260e+00 1.219729999999999981e+00 1.811060000000000159e+01 2.934289999999999843e+00 8.931099999999999595e-01 1.793440000000000012e+01 2.832450000000000134e+00 5.025689999999999991e+00 1.402979999999999983e+01 7.750160000000000160e+00 4.849230000000000373e+00 1.780209999999999937e+01 4.575680000000000192e+00 3.902350000000000207e+00 1.207579999999999920e+01 6.587970000000000326e+00 4.989329999999999821e+00 8.877209999999999823e+00 6.106139999999999901e+00 1.230089999999999906e+00 9.749349999999999739e+00 1.879399999999999959e+00 2.190020000000000078e+00 9.468189999999999884e+00 3.915329999999999977e+00 1.592999999999999972e-02 1.271690000000000076e+01 8.343579999999999330e+00 4.121170000000000222e+00 1.263139999999999930e+01 4.507049999999999557e+00 2.664039999999999964e+00 1.685999999999999943e+01 3.403499999999999859e-01 7.707000000000000517e-01 1.422899999999999920e+01 2.484449999999999825e+00 5.799330000000000318e+00 1.700430000000000064e+01 7.217730000000000423e+00 6.695630000000000415e+00 1.985490000000000066e+01 5.345919999999999561e+00 5.314169999999999838e+00 1.594480000000000075e+01 8.445660000000000167e+00 2.571549999999999780e+00 1.905330000000000013e+01
1.716900000000000093e+00 2.281250000000000000e+00 1.204889999999999972e+01 -3.480400000000000160e-01 5.233550000000000146e+00 1.097949999999999982e+01 6.282350000000000101e+00 1.582729999999999970e+00 1.190910000000000046e+01 3.898219999999999796e+00 5.297819999999999752e+00 1.108259999999999934e+01 3.418979999999999908e+00 6.151290000000000369e+00 1.484360000000000035e+01 6.527989999999999959e+00 1.457330000000000014e+00 1.955519999999999925e+01 -1.701640000000000041e+00 5.429759999999999920e+00 1.465700000000000003e+01 5.107840000000000380e+00 4.128709999999999880e+00 1.737389999999999901e+01 -1.129099999999999965e-01 7.017499999999999849e-01 1.053180000000000049e+01 6.171490000000000364e+00 3.803809999999999913e+00 1.017740000000000045e+01 3.996599999999999930e+00 9.301599999999999868e-01 1.049160000000000004e+01 1.832619999999999916e+00 4.068699999999999761e+00 9.917619999999999436e+00 1.891329999999999956e+00 1.125019999999999909e+00 1.463860000000000028e+01 -1.684000000000000080e-02 4.138029999999999653e+00 1.320710000000000051e+01 5.480500000000000149e+00 8.951799999999999757e-01 1.417590000000000039e+01 4.219269999999999854e+00 4.212119999999999642e+00 1.346889999999999965e+01 2.439300000000000079e-01 2.438839999999999897e+00 1.906769999999999854e+01 -8.552999999999999492e-01 4.139820000000000277e+00 1.737349999999999994e+01 4.243800000000000239e+00 1.832300000000000040e+00 1.827329999999999899e+01 3.325950000000000184e+00 5.761669999999999625e+00 1.732779999999999987e+01
3.119619999999999838e+00 2.977440000000000087e+00 1.220120000000000005e+01 9.763849999999999696e+00 5.286310000000000286e+00 1.020950000000000024e+01 6.373490000000000322e+00 1.685959999999999903e+00 1.205039999999999978e+01 7.098580000000000112e+00 7.287530000000000285e+00 9.542289999999999495e+00 6.392479999999999940e+00 9.299300000000000344e-01 1.793299999999999983e+01 3.000150000000000095e+00 1.032960000000000100e+00 1.766989999999999839e+01 3.618980000000000086e+00 6.717810000000000059e+00 1.399840000000000018e+01 8.581879999999999953e+00 4.585149999999999615e+00 1.867220000000000013e+01 5.525760000000000005e+00 3.606899999999999995e+00 1.318120000000000047e+01 7.458420000000000272e+00 4.655680000000000263e+00 9.317119999999999180e+00 7.065800000000000303e+00 1.012950000000000017e+00 9.610810000000000741e+00 3.608870000000000022e+00 3.840730000000000199e+00 9.787990000000000634e+00 3.928479999999999972e+00 3.290299999999999891e-01 1.230690000000000062e+01 9.744440000000000879e+00 5.383880000000000443e+00 1.298179999999999978e+01 4.627259999999999707e+00 2.676540000000000141e+00 1.676510000000000034e+01 8.569940000000000779e+00 1.799819999999999975e+00 1.344549999999999912e+01 1.023409000000000013e+01 6.039100000000000357e+00 1.704599999999999937e+01 7.494500000000000384e+00 7.263460000000000250e+00 1.953430000000000177e+01 5.237720000000000375e+00 6.332139999999999880e+00 1.611349999999999838e+01 8.987819999999999254e+00 2.032540000000000013e+00 1.877049999999999841e+01
2.976770000000000138e+00 9.433399999999999563e-01 1.205690000000000062e+01 7.857399999999999940e-01 4.748809999999999754e+00 1.182900000000000063e+01 -1.316100000000000048e-01 9.796899999999999498e-01 1.344500000000000028e+01 4.734119999999999884e+00 4.451190000000000424e+00 1.175600000000000023e+01 8.468830000000000524e+00 4.502599999999999936e-01 1.676790000000000092e+01 6.723989999999999689e+00 4.113599999999999923e+00 1.546560000000000024e+01 4.645190000000000374e+00 1.661129999999999995e+00 1.507380000000000031e+01 2.629480000000000040e+00 4.485960000000000392e+00 1.720439999999999969e+01 -3.142079999999999984e+00 6.229510000000000325e+00 1.123840000000000039e+01 -8.801400000000000334e-01 2.891640000000000210e+00 1.142849999999999966e+01 4.768810000000000215e+00 3.580599999999999894e-01 9.916750000000000398e+00 3.314550000000000107e+00 3.774070000000000036e+00 1.001849999999999952e+01 2.373000000000000109e-02 5.582209999999999894e+00 1.435890000000000022e+01 2.127349999999999852e+00 2.548750000000000071e+00 1.371340000000000003e+01 4.215180000000000149e+00 5.892520000000000202e+00 1.393140000000000001e+01 6.416809999999999903e+00 2.268060000000000187e+00 1.326539999999999964e+01 5.886129999999999640e+00 5.041199999999999903e+00 1.773789999999999978e+01 6.574600000000000222e+00 3.407299999999999773e-01 1.837699999999999889e+01 4.535129999999999661e+00 1.721580000000000110e+00 1.744519999999999982e+01 -7.683100000000000485e-01 2.602829999999999977e+00 1.555940000000000012e+01
3.576670000000000016e+00 1.540680000000000049e+00 1.252149999999999963e+01 1.355240000000000000e+00 5.186399999999999899e+00 1.317450000000000010e+01 -6.523400000000000309e-01 1.862000000000000099e+00 1.342859999999999943e+01 5.682249999999999801e+00 4.530170000000000030e+00 1.318030000000000079e+01 7.754019999999999690e+00 9.959700000000000220e-01 1.198969999999999914e+01 -1.289179999999999993e+00 4.611539999999999750e+00 1.566949999999999932e+01 5.983749999999999680e+00 5.591300000000000159e-01 1.648389999999999844e+01 9.578049999999999287e+00 2.278649999999999842e+00 1.678229999999999933e+01 1.272389999999999910e+00 4.522300000000000209e-01 1.312439999999999962e+01 -1.335990000000000011e+00 4.590080000000000382e+00 1.310319999999999929e+01 5.250099999999999767e+00 3.347200000000000175e-01 1.093169999999999931e+01 2.745330000000000048e+00 4.023340000000000138e+00 1.128870000000000040e+01 1.394330000000000069e+00 4.808200000000000252e+00 1.593660000000000032e+01 4.445359999999999978e+00 2.412360000000000060e+00 1.465520000000000067e+01 1.035699999999999932e+01 6.293299999999999450e-01 1.192539999999999978e+01 7.346589999999999954e+00 3.449759999999999938e+00 1.147509999999999941e+01 9.768850000000000477e+00 4.976180000000000270e+00 1.673460000000000036e+01 3.553780000000000161e+00 6.271519999999999762e+00 1.446829999999999927e+01 7.994349999999999845e+00 4.903899999999999926e-01 1.766920000000000002e+01 1.212758000000000003e+01 1.739360000000000017e+00 1.621389999999999887e+01
5.659379999999999633e+00 2.280209999999999848e+00 1.429209999999999958e+01 2.261489999999999778e+00 3.309899999999999842e+00 1.017420000000000080e+01 1.190563000000000038e+01 1.957240000000000091e+00 1.098620000000000019e+01 8.977040000000000575e+00 3.671609999999999818e+00 1.317479999999999940e+01 9.020670000000000854e+00 1.343970000000000109e+00 1.823710000000000164e+01 3.076560000000000183e+00 4.306589999999999918e+00 1.733190000000000097e+01 8.614589999999999748e+00 2.376999999999999946e-01 1.132179999999999964e+01 2.850509999999999877e+00 9.200800000000000090e-01 1.667220000000000013e+01 4.658200000000000118e-01 2.142300000000000038e-01 1.192210000000000036e+01 -3.278999999999999970e-02 3.516080000000000094e+00 9.348530000000000229e+00 1.039251999999999931e+01 6.049499999999999877e-01 9.379989999999999384e+00 7.413339999999999819e+00 2.571489999999999831e+00 1.125479999999999947e+01 1.450679999999999970e+00 4.704170000000000407e+00 1.463310000000000066e+01 3.760990000000000055e+00 3.488620000000000054e+00 1.259299999999999997e+01 1.028740999999999950e+01 1.096349999999999936e+00 1.336009999999999920e+01 7.993140000000000356e+00 2.429679999999999840e+00 1.542570000000000086e+01 1.152234999999999943e+01 1.838940000000000019e+00 1.838650000000000162e+01 7.310699999999999976e-01 2.497669999999999835e+00 1.744849999999999923e+01 6.348349999999999937e+00 1.692530000000000090e+00 1.858879999999999910e+01 5.786719999999999864e+00 3.975600000000000023e+00 1.665259999999999962e+01
2.306220000000000159e+00 3.559210000000000207e+00 1.151929999999999943e+01 8.355679999999999552e+00 7.731189999999999785e+00 1.144560000000000066e+01 6.434940000000000104e+00 3.511839999999999851e+00 1.175569999999999915e+01 5.013130000000000308e+00 7.249570000000000292e+00 1.240700000000000003e+01 3.203139999999999876e+00 7.077259999999999884e+00 1.729710000000000036e+01 5.468840000000000146e+00 2.868240000000000123e+00 1.614999999999999858e+01 2.121690000000000076e+00 5.369000000000000161e-02 1.544449999999999967e+01 1.894840000000000080e+00 3.291920000000000179e+00 1.606070000000000064e+01 8.343980000000000175e+00 1.708069999999999977e+00 1.084070000000000000e+01 6.445759999999999934e+00 5.840099999999999625e+00 1.069250000000000078e+01 4.290169999999999817e+00 2.650560000000000027e+00 1.051210000000000022e+01 2.796549999999999869e+00 6.293890000000000207e+00 1.113160000000000061e+01 7.875939999999999941e+00 3.360299999999999954e-01 1.405339999999999989e+01 4.922799999999999621e+00 2.767139999999999933e+00 1.378829999999999956e+01 7.099210000000000242e+00 7.945999999999999730e+00 1.376069999999999993e+01 9.359209999999999141e+00 4.786699999999999733e+00 1.419720000000000049e+01 8.426859999999999573e+00 4.197140000000000093e+00 1.854899999999999949e+01 7.662860000000000227e+00 2.245369999999999866e+00 1.766110000000000113e+01 5.559849999999999959e+00 5.672419999999999796e+00 1.667770000000000152e+01 3.554110000000000102e+00 1.452339999999999964e+00 1.728350000000000009e+01
1.987349999999999950e+00 1.318500000000000005e+00 1.190859999999999985e+01 -2.819800000000000084e-01 5.294699999999999740e+00 1.135619999999999941e+01 6.105610000000000426e+00 1.106970000000000010e+00 1.156000000000000050e+01 3.913339999999999819e+00 5.000309999999999810e+00 1.188369999999999926e+01 7.702799999999999647e-01 1.083700000000000108e+00 1.831929999999999836e+01 5.441159999999999997e+00 3.357489999999999863e+00 1.642539999999999978e+01 7.588999999999999913e-02 7.595419999999999838e+00 1.503669999999999973e+01 1.949370000000000047e+00 3.888380000000000170e+00 1.516499999999999915e+01 -4.114969999999999573e+00 7.454819999999999780e+00 1.060459999999999958e+01 5.736620000000000275e+00 3.584340000000000082e+00 1.025300000000000011e+01 -7.247999999999999998e-01 7.592920000000000336e+00 1.062650000000000006e+01 1.914069999999999938e+00 3.923420000000000130e+00 1.091539999999999999e+01 2.470439999999999969e+00 1.417259999999999964e+00 1.444239999999999924e+01 -3.699799999999999756e-01 5.061110000000000220e+00 1.398949999999999960e+01 6.849280000000000257e+00 1.149289999999999923e+00 1.412850000000000072e+01 4.018229999999999968e+00 4.963799999999999990e+00 1.464819999999999922e+01 4.514079999999999870e+00 1.003880000000000106e+00 1.730140000000000100e+01 4.497980000000000089e+00 5.385290000000000354e+00 1.794930000000000092e+01 -1.263279999999999959e+00 6.376310000000000144e+00 1.757600000000000051e+01 4.120599999999999818e-01 3.601710000000000189e+00 1.733709999999999951e+01
6.478080000000000283e+00 6.309969999999999857e+00 1.056199999999999939e+01 8.591340000000000643e+00 6.146700000000000053e+00 1.317880000000000074e+01 1.331979999999999942e+00 1.206120000000000081e+00 8.239990000000000592e+00 8.130879999999999441e+00 3.299949999999999939e+00 1.045309999999999917e+01 9.138360000000000483e+00 4.438819999999999766e+00 1.605559999999999832e+01 7.123920000000000030e+00 1.175820000000000087e+00 1.737689999999999912e+01 2.979820000000000135e+00 3.122699999999999920e-01 1.707469999999999999e+01 7.196889999999999787e+00 4.681790000000000340e+00 1.906299999999999883e+01 5.303350000000000009e+00 5.861239999999999561e+00 8.054819999999999425e+00 7.960350000000000037e+00 2.500579999999999803e+00 7.770889999999999631e+00 6.267179999999999751e+00 7.315000000000000391e-01 1.076050000000000040e+01 2.166220000000000034e+00 1.571909999999999918e+00 1.084140000000000015e+01 6.678119999999999834e+00 4.413789999999999658e+00 1.233830000000000027e+01 6.183010000000000339e+00 4.419579999999999842e+00 1.669770000000000110e+01 1.033986999999999945e+01 4.377620000000000289e+00 1.388219999999999921e+01 9.765499999999999403e+00 5.298289999999999722e+00 1.841890000000000072e+01 5.390710000000000335e+00 8.961599999999999566e-01 1.529540000000000077e+01 1.081979999999999942e+00 1.297909999999999897e+00 1.594050000000000011e+01 3.033450000000000202e+00 9.349000000000000365e-02 1.967040000000000077e+01 6.857359999999999900e+00 2.152320000000000011e+00 1.958879999999999910e+01
7.119480000000000253e+00 4.839520000000000266e+00 1.128589999999999982e+01 3.487639999999999851e+00 7.090530000000000221e+00 1.150070000000000014e+01 3.140519999999999978e+00 3.319819999999999993e+00 9.993240000000000123e+00 4.993479999999999919e+00 9.511000000000000010e-02 1.148150000000000048e+01 3.824059999999999793e+00 3.031499999999999750e-01 1.775250000000000128e+01 5.321939999999999671e+00 4.988150000000000084e+00 1.634149999999999991e+01 6.192090000000000316e+00 7.418479999999999741e+00 1.486810000000000009e+01 4.827069999999999972e+00 3.430470000000000130e+00 1.893130000000000024e+01 5.780590000000000117e+00 2.551979999999999915e+00 1.035790000000000077e+01 3.032179999999999875e+00 5.814829999999999721e+00 9.315139999999999532e+00 8.572419999999999263e+00 2.429230000000000000e+00 1.036159999999999926e+01 6.824659999999999727e+00 6.796350000000000335e+00 9.586130000000000706e+00 2.268600000000000172e+00 2.824999999999999734e-01 1.274109999999999943e+01 3.722929999999999851e+00 5.215419999999999945e+00 1.413260000000000005e+01 8.569699999999999207e+00 6.013569999999999638e+00 1.315290000000000070e+01 8.008520000000000749e+00 6.720449999999999591e+00 1.662259999999999849e+01 5.963949999999999640e+00 2.604830000000000201e+00 1.689630000000000010e+01 4.537639999999999674e+00 1.266580000000000039e+00 2.078299999999999870e-01 1.664139999999999953e+00 7.399599999999999511e-01 1.679629999999999868e+01 4.659570000000000434e+00 6.015749999999999709e+00 1.887740000000000151e+01
2.504490000000000105e+00 1.366900000000000004e+00 1.182530000000000037e+01 -1.599700000000000011e-01 4.830160000000000231e+00 1.182499999999999929e+01 6.608799999999999564e+00 1.071139999999999981e+00 1.170700000000000074e+01 4.493850000000000122e+00 5.160700000000000287e+00 1.195909999999999940e+01 7.967410000000000103e+00 8.432000000000000606e-02 1.584810000000000052e+01 6.512360000000000149e+00 3.822789999999999910e+00 1.534259999999999913e+01 3.800930000000000142e+00 7.850000000000000033e-02 1.643560000000000088e+01 1.948299999999999921e+00 3.314360000000000195e+00 1.532460000000000022e+01 1.437400000000000067e-01 2.020800000000000096e-01 1.097899999999999920e+01 6.508429999999999715e+00 3.641270000000000007e+00 1.096790000000000020e+01 3.038699999999999735e-01 7.302330000000000432e+00 1.075830000000000020e+01 2.474439999999999973e+00 3.832669999999999799e+00 1.090809999999999924e+01 1.783660000000000023e+00 1.025789999999999980e+00 1.435089999999999932e+01 2.200000000000000133e-03 4.835869999999999891e+00 1.444979999999999976e+01 6.123890000000000278e+00 1.462679999999999980e+00 1.450319999999999965e+01 4.250189999999999912e+00 4.959279999999999688e+00 1.463380000000000081e+01 1.297309999999999963e+00 2.231899999999999995e-01 1.737089999999999890e+01 6.418680000000000163e+00 4.060220000000000162e+00 1.779980000000000118e+01 1.514119999999999910e+00 5.873529999999999696e+00 1.775789999999999935e+01 3.073749999999999982e+00 4.497690000000000410e+00 1.730300000000000082e+01
7.197029999999999816e+00 4.548650000000000304e+00 1.163729999999999976e+01 3.491509999999999891e+00 7.176269999999999705e+00 1.169490000000000052e+01 2.745270000000000099e+00 3.810229999999999784e+00 1.011139999999999972e+01 7.855059999999999931e+00 8.036160000000000636e+00 1.092910000000000004e+01 8.030649999999999622e+00 8.207860000000000156e+00 1.757369999999999877e+01 6.361860000000000070e+00 4.695330000000000226e+00 1.699500000000000099e+01 6.949250000000000149e+00 7.594120000000000203e+00 1.428609999999999935e+01 4.662609999999999921e+00 2.904250000000000220e+00 1.910399999999999920e+01 4.936709999999999710e+00 2.354579999999999895e+00 1.075469999999999970e+01 3.467309999999999892e+00 6.107569999999999943e+00 9.316169999999999618e+00 9.072990000000000776e+00 2.568630000000000191e+00 1.050409999999999933e+01 7.799780000000000157e+00 6.077410000000000423e+00 9.111510000000000886e+00 2.230750000000000011e+00 5.137300000000000200e-01 1.234179999999999922e+01 4.865940000000000154e+00 5.344079999999999941e+00 1.442699999999999960e+01 9.561890000000000001e+00 7.587250000000000050e+00 1.308639999999999937e+01 8.653999999999999915e+00 6.243949999999999889e+00 1.632290000000000063e+01 6.815279999999999561e+00 2.138300000000000090e+00 1.718110000000000070e+01 4.038829999999999920e+00 8.848399999999999599e-01 2.073800000000000088e-01 3.027330000000000076e+00 1.164099999999999913e+00 1.631330000000000169e+01 4.830090000000000217e+00 5.411590000000000344e+00 1.922479999999999833e+01
6.346659999999999968e+00 1.010699999999999932e-01 1.129930000000000057e+01 3.829380000000000006e+00 5.663240000000000052e+00 1.201190000000000069e+01 2.619819999999999816e+00 1.483379999999999921e+00 1.183900000000000041e+01 7.780850000000000044e+00 3.836920000000000108e+00 1.262240000000000073e+01 3.003530000000000033e+00 1.839239999999999986e+00 1.666939999999999955e+01 5.270010000000000083e+00 4.300029999999999575e+00 1.556310000000000038e+01 2.154800000000000049e-01 2.075100000000000000e-01 1.736479999999999890e+01 9.577749999999999986e+00 5.200309999999999988e+00 1.584869999999999912e+01 7.188100000000000378e+00 8.696070000000000633e+00 1.058699999999999974e+01 1.841180000000000039e+00 3.760979999999999990e+00 1.071110000000000007e+01 1.028317999999999977e+01 6.829439999999999955e+00 1.024239999999999995e+01 6.256420000000000314e+00 4.553020000000000067e+00 1.091039999999999921e+01 7.905120000000000147e+00 1.280499999999999972e+00 1.275399999999999956e+01 7.474689999999999834e+00 5.563200000000000145e+00 1.447850000000000037e+01 4.308469999999999800e+00 2.299450000000000216e+00 1.438679999999999914e+01 4.268399999999999750e+00 6.577069999999999972e+00 1.453149999999999942e+01 4.311519999999999797e+00 3.865569999999999951e+00 1.798549999999999827e+01 8.441520000000000579e+00 2.808699999999999974e+00 1.692640000000000100e+01 5.982510000000000439e+00 7.886580000000000368e+00 1.692320000000000135e+01 9.168879999999999697e+00 7.677909999999999791e+00 1.711420000000000030e+01