-1.441399999999999973e-02 8.512480000000000047e-01 1.581369999999999998e-01 2.236499999999999877e-01 3.468649999999999789e-01 2.274468000000000156e+00 1.014130000000000031e-01 -5.792270000000000474e-01 1.570590000000000042e-01 5.317760000000000264e-01 -2.637430999999999859e+00 1.590886000000000022e+00 -1.295389999999999875e-01 -2.632749999999999813e-01 -3.165080000000000116e-01 -3.006070000000000131e-01 2.320550000000000113e-01 6.002400000000000097e-02 -2.369660000000000100e-01 3.846249999999999947e-01 -9.367999999999999591e-03 -1.296460000000000112e-01 -7.303260000000000307e-01 1.724299999999999999e-01 -4.022379999999999844e-01 1.406550000000000022e-01 1.086880000000000068e-01 -2.603929999999999856e-01 -6.473800000000000388e-02 2.149890000000000134e-01 7.202000000000000068e-03 -1.066720000000000029e-01 2.471009999999999873e-01 4.468030000000000057e-01 -6.215099999999999791e-02 7.412590000000000012e-01 -8.735889999999999489e-01 1.737039999999999917e+00 -2.167539000000000105e+00 4.281329999999999858e-01 -4.535660000000000247e-01 3.836220000000000185e-01 6.671299999999999453e-02 3.217110000000000247e-01 -1.537040000000000073e-01 9.601349999999999607e-01 6.242220000000000546e-01 -3.887039999999999940e-01 2.332950000000000024e-01 7.744119999999999893e-01 -1.551259999999999861e-01 -2.303320000000000090e-01 -7.128839999999999621e-01 -6.335370000000000168e-01 -7.785360000000000058e-01 2.876909999999999745e-01 -9.825460000000000305e-01 3.571400000000000130e-01 -9.025500000000000189e-02 -1.301630999999999982e+00
-2.486269999999999869e-01 6.244180000000000286e-01 -4.987799999999999873e-02 -8.904670000000000085e-01 2.639799999999999924e-01 -2.544080000000000230e-01 4.470480000000000009e-01 -3.446750000000000091e-01 -8.021200000000000552e-02 -1.167013999999999996e+00 2.490980000000000139e-01 3.718580000000000219e-01 -1.058243999999999962e+00 -6.713519999999999488e-01 -4.099149999999999738e-01 3.104830000000000090e-01 2.136210000000000053e-01 -1.068553000000000086e+00 3.556819999999999982e-01 1.327810000000000101e-01 -8.762360000000000149e-01 9.734580000000000455e-01 3.224839999999999929e-01 1.230700000000000023e-02 7.864440000000000319e-01 -4.432699999999999835e-02 6.761030000000000095e-01 -7.492699999999999361e-02 -1.181073000000000039e+00 7.155599999999999461e-02 8.693750000000000089e-01 -6.937500000000000611e-02 -1.815809999999999924e-01 -9.115839999999999499e-01 -3.157510000000000039e-01 -1.231679999999999997e-01 -6.940450000000000230e-01 2.255759999999999987e-01 -2.057650000000000035e-01 -9.601920000000000455e-01 -5.747399999999999731e-02 6.991870000000000029e-01 2.354868000000000183e+00 6.337009999999999588e-01 -4.466840000000000255e-01 -7.643300000000000094e-02 -2.493650000000000033e-01 9.971090000000000231e-01 -1.596845999999999988e+00 -2.108500000000000096e-01 5.590190000000000436e-01 6.005740000000000522e-01 6.380360000000000475e-01 7.180919999999999526e-01 1.783559999999999868e-01 -2.495449999999999890e-01 8.714600000000000124e-02 8.020899999999999697e-01 9.009300000000000641e-02 -4.959759999999999724e-01
7.347909999999999719e-01 8.718759999999999843e-01 -2.784999999999999976e-02 1.600055999999999923e+00 -1.314420000000000033e-01 1.125275999999999943e+00 9.827590000000000492e-01 4.346180000000000043e-01 5.353999999999999732e-02 -1.661024000000000056e+00 6.686490000000000489e-01 4.164479999999999849e-01 -1.110571999999999893e+00 1.166301000000000032e+00 -1.033859000000000083e+00 -8.752550000000000052e-01 1.531460999999999961e+00 -1.080934000000000061e+00 -9.032099999999999851e-02 3.384889999999999843e-01 -5.454520000000000479e-01 -1.121899999999999981e-02 5.134940000000000060e-01 -9.267269999999999675e-01 3.511179999999999857e-01 2.527650000000000174e-01 6.568420000000000369e-01 -3.863119999999999887e-01 -4.229379999999999806e-01 -5.731690000000000396e-01 -1.225090000000000012e+00 -1.127606000000000108e+00 2.338580000000000103e-01 4.506009999999999738e-01 -5.366560000000000219e-01 5.382730000000000015e-01 -4.370799999999999685e-02 4.945809999999999929e-01 7.267040000000000166e-01 -3.531880000000000019e-01 -1.070016000000000078e+00 4.267020000000000257e-01 -5.035020000000000051e-01 7.026200000000000501e-02 2.629469999999999863e-01 5.912239999999999718e-01 -3.402640000000000109e-01 -1.235365999999999964e+00 -3.035769999999999857e-01 7.146900000000000475e-02 -6.924970000000000292e-01 9.723829999999999973e-01 -2.083089999999999942e-01 -3.107309999999999794e-01 -3.553899999999999837e-01 -1.717980999999999980e+00 9.269789999999999974e-01 1.236226999999999965e+00 -8.587529999999999886e-01 1.059015999999999957e+00
-1.021555999999999909e+00 3.707150000000000167e-01 -3.430759999999999921e-01 -2.876859999999999973e-01 5.746879999999999766e-01 -4.446570000000000245e-01 3.603919999999999901e-01 -2.312180000000000069e-01 1.451679999999999915e-01 -3.036329999999999862e-01 -5.364240000000000119e-01 -6.401799999999999713e-01 -5.114900000000000002e-02 -7.451520000000000366e-01 7.082950000000000079e-01 4.229689999999999839e-01 1.797060000000000046e-01 1.493710000000000038e-01 6.558140000000000081e-01 -1.644859999999999933e-01 -4.637800000000000256e-01 1.472026000000000057e+00 1.007223999999999897e+00 -2.772899999999999809e-01 1.425823999999999980e+00 -8.311799999999999744e-02 1.311171000000000086e+00 -1.057430000000000037e-01 4.586180000000000256e-01 9.692239999999999744e-01 -1.973580000000000056e-01 -1.000972999999999891e+00 1.707699999999999843e-02 -6.688539999999999486e-01 6.667680000000000273e-01 1.463098000000000010e+00 4.014809999999999768e-01 5.530329999999999968e-01 7.115409999999999791e-01 -2.739530000000000021e-01 9.391420000000000323e-01 -1.149262000000000006e+00 1.686299999999999952e-02 3.174640000000000239e-01 -8.757500000000000007e-02 8.572530000000000427e-01 -1.114832999999999963e+00 4.496459999999999901e-01 -3.693230000000000124e-01 3.845660000000000189e-01 -5.986470000000000402e-01 -5.626919999999999700e-01 -1.204763000000000028e+00 7.257700000000000262e-02 -1.070333999999999897e+00 8.639000000000000845e-03 -1.382937000000000083e+00 -7.003409999999999913e-01 -3.795970000000000177e-01 -6.097630000000000550e-01
5.507619999999999738e-01 1.033579999999999943e+00 -2.711779999999999746e-01 -1.455613000000000046e+00 -2.224250000000000116e-01 3.820609999999999840e-01 -4.903199999999999781e-01 -9.189700000000000646e-02 3.774540000000000117e-01 8.174310000000000187e-01 4.690170000000000172e-01 -5.330000000000000016e-02 -8.976680000000000215e-01 1.210159999999999986e-01 -6.094829999999999970e-01 -4.050499999999999934e-02 2.116499999999999979e-02 1.274415000000000076e+00 7.818580000000000529e-01 -4.843129999999999935e-01 5.532080000000000330e-01 3.169259999999999855e-01 -5.824019999999999753e-01 -1.543289999999999940e-01 -6.267909999999999870e-01 5.236500000000000182e-02 4.419700000000000017e-02 9.660180000000000433e-01 -4.403770000000000184e-01 1.889379999999999948e-01 -4.088999999999999753e-03 1.448230000000000073e-01 -2.717860000000000276e-01 -1.443109999999999948e-01 -1.432498000000000049e+00 1.011883000000000088e+00 6.156300000000000106e-01 1.171060000000000018e-01 -8.909219999999999917e-01 3.945549999999999891e-01 1.484419999999999906e-01 -2.746099999999999930e-02 -6.381289999999999463e-01 5.105889999999999596e-01 -8.539080000000000004e-01 8.486200000000000687e-02 -9.950199999999999323e-02 -7.401069999999999593e-01 -5.723770000000000246e-01 1.036224999999999952e+00 -1.898620000000000030e-01 6.402120000000000033e-01 -7.137919999999999821e-01 4.362999999999999691e-03 -6.382689999999999753e-01 -1.905239999999999989e-01 1.902760000000000007e-01 3.398180000000000089e-01 6.034040000000000514e-01 3.554299999999999821e-02
7.057130000000000347e-01 2.228439999999999865e-01 1.132500000000000000e-02 3.581739999999999924e-01 5.095840000000000369e-01 -5.864599999999999674e-02 3.874460000000000126e-01 -3.422229999999999994e-01 -2.632239999999999913e+00 -9.257589999999999986e-01 6.141269999999999785e-01 7.203260000000000218e-01 1.850299999999999861e-02 -7.108999999999999764e-01 2.338760000000000006e-01 2.633920000000000150e-01 -9.955060000000000020e-01 -9.128279999999999728e-01 -9.645099999999999507e-02 -5.708599999999999786e-02 -9.460000000000000093e-04 1.309599999999999931e-01 -1.113083000000000045e+00 3.391109999999999958e-01 -1.159554999999999891e+00 -5.242269999999999985e-01 5.101980000000000404e-01 7.597600000000000187e-02 -6.606260000000000465e-01 -1.114689000000000041e+00 -3.045019999999999949e-01 6.002640000000000198e-01 7.831249999999999600e-01 5.243849999999999900e-01 -3.131970000000000032e-01 -1.779439999999999911e-01 1.305412000000000017e+00 7.729449999999999932e-01 1.262359999999999871e-01 -2.347879999999999967e-01 7.270879999999999566e-01 5.145859999999999879e-01 -1.238302999999999932e+00 3.519120000000000026e-01 2.104403000000000024e+00 3.068350000000000244e-01 -1.212980000000000030e-01 -1.018764999999999921e+00 -1.227140000000000036e-01 -1.457800000000000068e-02 -5.326399999999999885e-02 -5.803099999999999925e-01 1.369572000000000012e+00 8.987530000000000241e-01 1.356199999999999940e-02 -3.101300000000000168e-01 -4.720699999999999896e-02 5.720239999999999769e-01 -5.486000000000000425e-03 -2.254089999999999983e-01
-6.192959999999999576e-01 -8.343549999999999578e-01 4.403940000000000077e-01 -3.486670000000000047e-01 3.916240000000000276e-01 3.549000000000000071e-03 -9.440400000000000180e-02 -5.502000000000000224e-01 -2.083939999999999959e-01 1.896539999999999893e-01 -1.914956000000000103e+00 -4.212119999999999753e-01 4.605360000000000009e-01 -2.627600000000000074e-02 -8.233100000000000140e-02 -5.181989999999999652e-01 -2.211450000000000082e-01 -2.750340000000000007e-01 4.439719999999999778e-01 1.468059999999999921e-01 2.070049999999999946e-01 -1.046899999999999914e-02 1.407400000000000040e-01 -2.379169999999999896e-01 6.052300000000000041e-02 5.192790000000000461e-01 5.679800000000000404e-01 -3.299849999999999728e-01 9.175600000000000422e-02 -3.195599999999999830e-02 2.000125999999999848e+00 -3.257899999999999685e-02 5.122830000000000439e-01 -7.702679999999999527e-01 5.777940000000000298e-01 -6.574599999999999889e-02 -2.498990000000000100e-01 9.202820000000000444e-01 -1.462569999999999981e-01 2.624489999999999879e-01 2.254869999999999930e-01 2.399900000000000089e-01 9.241599999999999815e-02 -1.912000000000000071e-03 -1.191490000000000049e-01 -3.000479999999999814e-01 1.220253999999999950e+00 -9.503859999999999530e-01 -1.004890000000000061e+00 -3.866490000000000204e-01 3.672130000000000116e-01 -3.882900000000000240e-02 -2.234480000000000077e-01 -5.275990000000000402e-01 1.169089999999999963e+00 5.269160000000000510e-01 1.006094000000000044e+00 -3.938110000000000221e-01 -5.694179999999999797e-01 -2.785259999999999958e-01
5.868189999999999795e-01 -1.050005000000000077e+00 2.424900000000000111e-01 -1.529540000000000066e-01 1.111749000000000098e+00 -8.030559999999999921e-01 -4.116399999999999920e-02 4.799550000000000205e-01 -1.169451000000000018e+00 6.596119999999999761e-01 -1.090626000000000095e+00 -1.752420000000000089e-01 -7.245909999999999851e-01 1.553395999999999999e+00 -3.072699999999999876e-01 5.185999999999999638e-03 1.327710000000000001e-01 -7.877849999999999575e-01 -2.738849999999999896e-01 3.545559999999999823e-01 8.304610000000000047e-01 1.536899999999999933e+00 -1.367031000000000107e+00 1.992230000000000112e-01 -3.971250000000000058e-01 7.512290000000000356e-01 1.456999999999999962e-01 -3.550820000000000087e-01 2.094820000000000015e-01 9.343100000000000016e-02 -4.029369999999999896e-01 -5.677200000000000024e-01 3.406029999999999891e-01 2.681790000000000007e-01 -3.629799999999999693e-02 1.493950000000000000e-01 -4.627589999999999759e-01 -4.548409999999999953e-01 -7.896680000000000366e-01 3.973220000000000085e-01 -4.991070000000000229e-01 6.933930000000000371e-01 8.050239999999999618e-01 -5.825979999999999492e-01 6.782150000000000123e-01 2.553400000000000114e-01 -1.596619999999999984e-01 -1.144089999999999968e-01 -5.460190000000000321e-01 9.042600000000000637e-02 -1.122060000000000002e-01 -5.695850000000000080e-01 2.093379999999999963e-01 -1.277250000000000052e-01 4.405740000000000212e-01 5.104700000000000210e-02 4.627220000000000222e-01 -1.028853999999999935e+00 8.639369999999999550e-01 5.511800000000000033e-01
-6.593000000000000249e-02 1.853100000000000025e-01 3.563540000000000041e-01 1.114241999999999955e+00 2.545789999999999997e-01 3.916259999999999741e-01 5.752639999999999976e-01 -1.611264999999999947e+00 -1.021039999999999948e+00 8.818169999999999620e-01 1.468790000000000096e-01 9.985810000000000519e-01 3.351629999999999887e-01 -6.311400000000000343e-02 -6.699049999999999727e-01 -7.926210000000000200e-01 -9.154210000000000402e-01 -2.408210000000000073e-01 -4.277730000000000143e-01 3.166089999999999738e-01 1.795690000000000064e-01 4.846699999999999897e-01 1.309080000000000021e+00 -9.056920000000000526e-01 -1.164298000000000055e+00 2.018383000000000038e+00 1.168109000000000064e+00 -2.435599999999999987e-01 4.990200000000000191e-01 -3.026360000000000161e-01 -1.017997999999999958e+00 -1.026248999999999967e+00 -2.680000000000000090e-04 -1.066527999999999921e+00 2.739240000000000008e-01 -2.018919999999999881e-01 -2.613329999999999820e-01 1.031399999999999956e-01 -7.106999999999999984e-01 1.226420000000000066e+00 -4.233290000000000108e-01 -2.154679999999999929e-01 1.081634999999999902e+00 5.727200000000000346e-02 2.180809999999999971e-01 8.951010000000000355e-01 -5.709549999999999903e-01 2.295349999999999890e-01 -3.413959999999999773e-01 -6.292499999999999483e-02 5.595499999999999918e-01 -3.481339999999999990e-01 -5.547440000000000149e-01 2.824130000000000251e-01 -2.812140000000000195e-01 2.675210000000000088e-01 -2.210709999999999897e-01 -5.835259999999999891e-01 -2.037140000000000062e-01 1.056740000000000040e-01
1.150500000000000078e+00 -1.387647999999999993e+00 -2.195723000000000091e+00 4.809019999999999961e-01 7.321579999999999755e-01 -7.350330000000000474e-01 -7.375479999999999814e-01 3.789489999999999803e-01 -1.208196999999999965e+00 1.912295999999999996e+00 4.965789999999999926e-01 1.402341000000000060e+00 1.506431000000000076e+00 3.927740000000000120e-01 -8.300880000000000480e-01 6.307840000000000114e-01 -2.488879999999999981e-01 -8.845939999999999914e-01 -8.191990000000000105e-01 -1.348524999999999974e+00 -2.706064000000000025e+00 5.163399999999999934e-02 -6.681300000000000017e-01 -2.111959999999999948e-01 -2.735549999999999926e-01 9.894799999999999429e-02 6.002699999999999703e-01 -2.015599999999999892e-01 -6.954850000000000199e-01 1.496659999999999935e-01 -8.710390000000000077e-01 -6.474079999999999835e-01 2.315558999999999923e+00 -1.372144000000000030e+00 -3.800060000000000104e-01 -6.449799999999999978e-01 1.786280000000000090e-01 1.023701999999999890e+00 -4.341360000000000219e-01 5.831439999999999957e-01 5.445400000000000240e-01 1.099650999999999934e+00 4.663809999999999900e-01 7.078600000000000170e-02 6.870760000000000201e-01 -5.659600000000000186e-01 1.069010999999999934e+00 2.880630000000000135e-01 -3.213829999999999742e-01 7.498259999999999925e-01 -1.608159999999999867e-01 -9.786390000000000366e-01 1.604780000000000095e-01 3.851870000000000016e-01 -6.407300000000000495e-02 6.912699999999999401e-02 2.130513000000000101e+00 -7.556000000000000494e-01 -4.107870000000000132e-01 9.525010000000000421e-01
-7.444290000000000074e-01 6.532139999999999613e-01 -1.834737999999999980e+00 4.711980000000000057e-01 -8.288999999999999493e-03 -7.905029999999999557e-01 -2.089545000000000208e+00 1.046834000000000042e+00 2.203670000000000073e-01 -4.772600000000000176e-01 3.576320000000000054e-01 -7.701430000000000220e-01 -1.885900000000000076e-01 -2.625870000000000148e-01 8.820599999999999552e-01 3.102460000000000218e-01 -7.961759999999999948e-01 8.478980000000000405e-01 -2.416326999999999892e+00 4.392999999999999683e-02 -2.583800999999999792e+00 7.801780000000000381e-01 9.602159999999999584e-01 -2.543940000000000090e-01 8.623159999999999714e-01 -1.093339999999999979e+00 -1.824969999999999926e-01 4.993500000000000161e-01 -6.981849999999999445e-01 -6.217080000000000384e-01 4.976300000000000168e-02 -6.493729999999999780e-01 6.594600000000000461e-01 7.165749999999999620e-01 -8.552319999999999922e-01 8.692020000000000302e-01 -1.486474000000000073e+00 2.195870000000000044e-01 7.445530000000000204e-01 1.038594000000000017e+00 4.540199999999999791e-01 2.082444000000000184e+00 3.536710000000000131e-01 -7.335709999999999731e-01 2.019289999999999974e-01 -2.674500000000000141e-02 1.040774000000000088e+00 4.032129999999999881e-01 -4.533119999999999927e-01 -7.632630000000000248e-01 1.761969999999999925e-01 9.374029999999999863e-01 5.123490000000000544e-01 -1.916498999999999953e+00 2.276523000000000074e+00 2.495880000000000043e-01 2.243761999999999812e+00 -4.131349999999999745e-01 3.218719999999999914e-01 -3.768009999999999970e-01
-7.107809999999999961e-01 -2.632700000000000040e-01 -8.239279999999999937e-01 9.528529999999999500e-01 -1.943590000000000040e-01 6.698049999999999837e-01 -7.569800000000000140e-02 -3.909309999999999730e-01 1.726090000000000124e-01 4.172150000000000025e-01 -7.020700000000000551e-02 -4.213250000000000051e-01 8.675499999999999878e-02 4.140570000000000084e-01 -2.875360000000000138e-01 -1.620540000000000036e-01 -8.015419999999999767e-01 -4.933139999999999747e-01 2.052370000000000028e-01 -1.548019999999999952e-01 3.214330000000000243e-01 -6.654470000000000107e-01 4.746399999999999925e-02 1.298980000000000135e-01 -3.186399999999999788e-01 -4.724140000000000006e-01 5.059879999999999933e-01 -6.890960000000000418e-01 2.457229999999999970e-01 -3.323969999999999980e-01 -4.461169999999999858e-01 5.685099999999999876e-02 -7.063700000000000534e-02 -3.696300000000000141e-01 1.419910000000000061e-01 4.341530000000000111e-01 1.040500999999999898e+00 7.074599999999999778e-01 4.842469999999999830e-01 4.470740000000000269e-01 2.934280000000000221e-01 -4.265979999999999772e-01 -7.262499999999999512e-02 4.388790000000000191e-01 -2.000500000000000056e-01 7.413699999999999735e-01 1.106110000000000010e-01 -1.755150000000000043e-01 -8.656999999999999765e-03 1.107099999999999924e-02 2.625799999999999801e-01 4.247630000000000017e-01 7.864200000000000357e-02 8.514399999999999746e-02 1.632109999999999950e-01 1.444960000000000133e-01 4.492959999999999732e-01 -9.602349999999999497e-01 -3.431480000000000086e-01 -2.838530000000000220e-01
-1.598332000000000086e+00 9.873420000000000529e-01 1.550335000000000019e+00 2.877179999999999738e-01 -6.750599999999999656e-02 -4.129820000000000157e-01 5.513620000000000188e-01 -8.455570000000000030e-01 5.688239999999999963e-01 -1.324351999999999974e+00 8.714199999999999724e-02 -7.813100000000000600e-02 -8.354819999999999469e-01 -6.982960000000000278e-01 4.854829999999999979e-01 1.039951000000000070e+00 6.966660000000000075e-01 1.059962999999999989e+00 6.457140000000000102e-01 -2.837580000000000102e-01 6.192919999999999536e-01 -2.447940000000000116e-01 -2.464079999999999881e-01 1.589053999999999967e+00 -1.373969999999999914e-01 1.012632999999999894e+00 9.164899999999999436e-02 3.868240000000000012e-01 5.417319999999999913e-01 -8.612999999999999545e-01 1.578659999999999952e+00 -1.522046000000000010e+00 -1.428865999999999969e+00 -5.632300000000000084e-01 -3.089489999999999736e-01 -5.945289999999999742e-01 4.927309999999999746e-01 -3.237500000000000100e-02 5.061649999999999761e-01 8.807600000000000151e-02 4.379430000000000267e-01 -1.185804999999999998e+00 4.339189999999999992e-01 -4.530689999999999995e-01 -1.565120000000000122e-01 -1.622499999999999984e-02 -3.391600000000000170e-02 -1.159607000000000054e+00 1.000518000000000018e+00 1.151840999999999893e+00 -1.585200000000000151e-02 -8.002789999999999626e-01 -1.149567000000000005e+00 -6.648650000000000393e-01 -2.251509999999999900e-01 2.748869999999999925e-01 1.554290000000000116e-01 -7.602320000000000189e-01 4.512599999999999945e-01 -6.774600000000000066e-02
-2.687809999999999921e-01 2.359590000000000021e-01 2.428539999999999865e-01 -7.668000000000000337e-03 -1.633245999999999976e+00 6.771300000000000097e-01 -1.943660000000000110e-01 1.080740000000000034e-01 2.741100000000000203e-01 1.127863000000000060e+00 4.090219999999999967e-01 6.456279999999999797e-01 1.659120000000000039e-01 -5.969919999999999671e-01 1.411310000000000064e-01 6.269259999999999833e-01 -4.195940000000000225e-01 2.324350000000000027e-01 4.413710000000000133e-01 -1.120010000000000033e-01 -5.460490000000000066e-01 -2.555968000000000018e+00 -4.992449999999999943e-01 7.935999999999999721e-01 -4.197580000000000200e-01 8.567199999999999815e-02 -9.722899999999999598e-02 4.659800000000000053e-02 8.394500000000000572e-02 7.046700000000000186e-01 1.085172999999999943e+00 1.595857000000000081e+00 -7.583790000000000253e-01 -9.202310000000000212e-01 -1.141575000000000006e+00 -1.044546999999999892e+00 -4.130099999999999882e-01 -7.365580000000000460e-01 -4.587510000000000199e-01 4.520989999999999731e-01 3.766030000000000211e-01 3.899059999999999748e-01 -1.087577000000000016e+00 -2.161810000000000120e-01 -4.805440000000000267e-01 1.735824000000000034e+00 1.456812999999999914e+00 -9.053320000000000256e-01 1.923009999999999997e-01 1.067398000000000069e+00 6.708809999999999496e-01 -4.464719999999999800e-01 -3.618830000000000102e-01 1.593899999999999831e-02 2.068699999999999983e-01 -7.254199999999999537e-02 1.442529999999999923e-01 2.328939999999999899e-01 3.704740000000000255e-01 -6.417070000000000274e-01
-9.291660000000000474e-01 8.212439999999999740e-01 -1.261219000000000090e+00 7.547540000000000360e-01 4.102560000000000096e-01 -2.465569999999999984e-01 5.238949999999999996e-01 -2.553170000000000162e-01 1.367598000000000091e+00 4.078709999999999836e-01 -1.365215000000000067e+00 -4.712129999999999930e-01 -6.899739999999999762e-01 -5.369810000000000416e-01 6.450240000000000418e-01 7.612219999999999542e-01 -7.368820000000000370e-01 -1.259846000000000021e+00 9.509589999999999987e-01 -7.008379999999999610e-01 8.155179999999999652e-01 -3.975870000000000237e-01 4.889649999999999830e-01 4.177400000000000002e-01 6.377559999999999896e-01 -4.360879999999999757e-01 7.723499999999999810e-02 -9.953999999999999307e-03 6.270580000000000043e-01 6.062309999999999643e-01 5.400400000000000339e-02 -5.577590000000000048e-01 6.448749999999999760e-01 -1.062070999999999987e+00 9.950759999999999605e-01 -6.328939999999999566e-01 -3.612199999999999855e-01 -2.090110000000000023e-01 3.583599999999999980e-02 5.096309999999999452e-01 -2.346830000000000027e-01 -1.212833999999999968e+00 1.385750000000000037e-01 2.031660000000000132e-01 -4.280479999999999841e-01 1.038020000000000054e-01 -4.954399999999999776e-02 -1.098700000000000024e-02 -1.681729999999999892e-01 4.421720000000000095e-01 4.199700000000000100e-01 -1.952927000000000080e+00 1.008895000000000097e+00 -5.261439999999999451e-01 7.148790000000000422e-01 -4.296130000000000226e-01 -2.783340000000000258e-01 1.372400000000000009e-02 5.150970000000000271e-01 1.298046999999999951e+00
6.131090000000000151e-01 -1.691269999999999996e-01 -4.250749999999999806e-01 4.784359999999999724e-01 -2.392249999999999932e-01 9.035229999999999650e-01 4.339600000000000124e-01 1.272179999999999978e-01 3.496319999999999983e-01 -1.023565999999999976e+00 -8.621069999999999567e-01 -2.781890000000000196e-01 9.497440000000000326e-01 8.637390000000000345e-01 2.104060000000000041e+00 -5.332970000000000210e-01 7.702419999999999822e-01 1.981509999999999938e-01 -7.141809999999999548e-01 4.883689999999999976e-01 1.685299999999999992e-02 -3.826760000000000161e-01 5.432379999999999987e-01 1.676174000000000053e+00 -1.433348000000000066e+00 -7.420200000000000407e-02 1.650189999999999990e-01 1.173499999999999960e-01 2.197870000000000101e-01 -1.058840000000000059e-01 4.713319999999999732e-01 2.024469999999999881e-01 6.476300000000000112e-02 2.558869999999999756e-01 1.402980000000000060e-01 4.434420000000000028e-01 2.542110000000000203e-01 3.265919999999999934e-01 -3.672650000000000081e-01 7.037489999999999579e-01 5.413630000000000386e-01 -4.802399999999999725e-02 3.078499999999999986e-02 2.710650000000000004e-01 -3.094399999999999928e-01 3.465500000000000247e-01 -9.407689999999999664e-01 -7.074270000000000280e-01 5.745230000000000059e-01 -7.795309999999999739e-01 -1.031101999999999963e+00 -3.367689999999999850e-01 -2.623309999999999809e-01 -5.432979999999999476e-01 -8.050519999999999898e-01 -1.354120000000000046e-01 -1.230464999999999920e+00 -7.450000000000000025e-04 -1.031654000000000071e+00 -8.754459999999999464e-01
-6.785199999999999565e-02 8.956999999999999684e-03 3.242280000000000162e-01 1.204404000000000030e+00 2.578000000000000083e-02 -6.322999999999999454e-02 3.358019999999999894e-01 7.226749999999999563e-01 1.219776999999999889e+00 8.572100000000000553e-02 -1.534010000000000096e-01 5.897270000000000012e-01 2.481549999999999867e-01 -8.905299999999999327e-02 7.153580000000000494e-01 2.632990000000000053e-01 3.537540000000000129e-01 1.009236000000000022e+00 1.933670000000000111e-01 -4.120100000000000151e-02 1.335000000000000032e-03 2.355089999999999961e-01 5.335299999999999765e-02 2.974149999999999849e-01 1.791310000000000124e-01 -1.367099999999999982e-01 -7.551619999999999999e-01 -1.662049999999999916e-01 1.260200000000000035e-02 -6.299059999999999659e-01 -9.677879999999999816e-01 -4.064119999999999955e-01 -4.340350000000000041e-01 -8.517630000000000479e-01 1.311019999999999963e-01 -3.593259999999999788e-01 3.034780000000000255e-01 -8.655249999999999888e-01 -6.705250000000000377e-01 -1.907949999999999924e-01 7.306139999999999857e-01 -2.225959999999999883e-01 -2.820210000000000217e-01 -9.198159999999999670e-01 -1.154322000000000070e+00 -4.371740000000000070e-01 4.007499999999999951e-01 -1.335348999999999897e+00 -6.914740000000000331e-01 2.615199999999999747e-01 1.599500000000000088e-01 1.748270000000000102e-01 -1.948179999999999912e-01 3.653399999999999703e-02 -2.371773000000000131e+00 3.033129999999999882e+00 1.061336000000000057e+00 2.803150000000000031e+00 -2.927303000000000210e+00 2.095559999999999923e-01
7.697800000000000475e-02 -3.204230000000000134e-01 -8.642360000000000042e-01 -8.348010000000000153e-01 -3.401190000000000047e-01 2.169999999999999984e-01 -2.260159999999999947e-01 -9.279870000000000063e-01 3.768960000000000088e-01 9.218800000000000605e-02 -5.880769999999999609e-01 -2.659659999999999802e-01 -8.861790000000000500e-01 2.160012000000000043e+00 1.527570000000000094e+00 -4.974390000000000200e-01 6.004380000000000273e-01 -3.799370000000000247e-01 -9.505000000000000115e-01 -1.314869999999999928e-01 9.450549999999999784e-01 7.343509999999999760e-01 8.062639999999999807e-01 -4.746009999999999951e-01 -1.091170000000000057e-01 1.021689000000000069e+00 -2.247470000000000023e-01 -1.299299999999999934e-02 1.290350000000000108e-01 4.432650000000000201e-01 2.587369999999999948e-01 5.995169999999999666e-01 2.699010000000000020e-01 -3.221930000000000072e-01 4.575330000000000230e-01 1.606896000000000102e+00 8.829280000000000461e-01 2.103700000000000014e-01 -1.882379999999999887e-01 1.487467000000000095e+00 4.986630000000000229e-01 -3.382199999999999790e-02 -1.087550000000000044e-01 -1.134970000000000007e-01 -9.522869999999999946e-01 -1.075900000000000051e-01 -1.795257000000000103e+00 -5.800250000000000128e-01 -2.788059999999999983e-01 8.362400000000000388e-02 5.590289999999999981e-01 7.541599999999999693e-02 -1.427364999999999995e+00 -3.232140000000000013e-01 1.991189999999999904e-01 -5.784129999999999550e-01 -6.837530000000000552e-01 5.272059999999999524e-01 -3.445190000000000197e-01 -9.747869999999999591e-01
-1.591620000000000035e+00 -8.646899999999999586e-01 -1.242807999999999913e+00 1.347931999999999908e+00 -1.041195000000000093e+00 -5.244900000000000256e-02 1.789729999999999932e-01 1.139826000000000006e+00 -2.490449999999999886e-01 4.295590000000000241e-01 2.812669999999999892e-01 -8.376400000000000512e-02 1.133051000000000030e+00 -7.710310000000000219e-01 6.538499999999999868e-02 2.239490000000000092e-01 9.004469999999999974e-01 5.649560000000000137e-01 -4.183959999999999901e-01 -1.087469999999999937e+00 -4.346140000000000003e-01 1.274035999999999946e+00 1.103645999999999905e+00 1.000456999999999930e+00 1.027740000000000098e+00 -2.036979999999999902e-01 2.622160000000000046e-01 1.149966000000000044e+00 -2.314430000000000098e-01 8.647000000000000242e-01 -7.152999999999999636e-02 8.531790000000000207e-01 -4.707109999999999905e-01 -2.457580000000000098e+00 7.918380000000000418e-01 -7.733719999999999484e-01 3.841209999999999902e-01 -5.902249999999999996e-01 1.827560999999999991e+00 -5.409500000000000419e-01 1.078039999999999971e-01 -1.622399999999999884e-02 -6.004260000000000153e-01 -1.128649000000000013e+00 -7.894120000000000026e-01 -9.596609999999999863e-01 -6.680629999999999624e-01 -3.485989999999999922e-01 -4.002999999999999614e-03 -2.159709999999999963e-01 -8.404559999999999809e-01 -8.335869999999999669e-01 -2.016699999999999882e-01 2.628099999999999881e-01 -4.881100000000000022e-02 1.743009000000000031e+00 2.844920000000000226e-01 3.772369999999999890e-01 8.308699999999999419e-02 1.688759999999999983e-01