-6.595276232999999877e+01
-6.544612983999999756e+01
-6.565130476000000215e+01
-6.664315670999999952e+01
-6.570179554999999993e+01
-6.539374501000000350e+01
-6.503742162999999721e+01
-6.533065885000000605e+01
-6.527847586999999407e+01
-6.612482192000000225e+01
-6.581501473999999519e+01
-6.619733936999999457e+01
-6.505868035000000305e+01
-6.523431936000000064e+01
-6.610397095999999806e+01
-6.789052834999999675e+01
-6.509562800999999865e+01
-6.471402449999999362e+01
-6.400954973000000336e+01
-6.446616400000000624e+01
-6.567539297000000431e+01
-6.698470115000000646e+01
-6.316733385999999939e+01
-6.575978424999999561e+01
-6.330729010000000301e+01
-6.586004669000000433e+01
-6.811923597000000541e+01
-6.508809490999999525e+01
-6.632360608000000468e+01
-6.498652760999999600e+01
-6.563428104999999846e+01
-6.415227550000000178e+01
-6.624719795999999405e+01
-6.538956577000000436e+01
-6.701751550000000179e+01
-6.496679987999999639e+01
-6.480635773000000199e+01
-6.473862848999999642e+01
-6.640307796999999823e+01
-6.760282540999999412e+01
-6.489476225999999315e+01
-6.730001351999999315e+01
-6.438036981000000480e+01
-6.498675636000000111e+01
-6.537928458999999748e+01
-6.608426943000000620e+01
-6.556443339000000492e+01
-6.568468880000000354e+01
-6.630431982000000346e+01
-6.520474169999999958e+01
-6.486678718999999660e+01
-6.645443955000000358e+01
-6.562104782000000114e+01
-6.521786871000000474e+01
-6.426366436000000704e+01
-6.516542655000000650e+01
-6.515243540999999539e+01
-6.462766575000000557e+01
-6.484898825000000500e+01
-6.978603744000000120e+01
-6.626840015000000506e+01
-6.736012015000000019e+01
-6.789474053000000708e+01
-6.918105748000000688e+01
-6.635209324000000208e+01
-6.632458594000000573e+01
-6.459661663999999348e+01
-6.713493370999999854e+01
-6.791440484999999683e+01
-6.531395150999999544e+01
-6.576530085000000270e+01
-6.736726667000000646e+01
-6.686245508999999743e+01
-6.505223066000000642e+01
-6.767635491999999431e+01
-6.439090025000000139e+01
-6.648253295000000662e+01
-6.377117613000000063e+01
-6.412376288000000102e+01
-6.596589978000000087e+01
-6.598360404000000301e+01
-6.480976474999999937e+01
