-8.547550000000000425e-01 1.808666000000000107e+00 -6.073420000000000485e-01 -7.883099999999999830e-02 -3.851299999999999862e-02 2.128839999999999899e-01 1.014731999999999967e+00 1.175305000000000044e+00 -1.617669999999999941e-01 -2.610313999999999801e+00 -3.625329999999999941e-01 -1.251400000000000012e-01 4.154729999999999812e-01 -9.743939999999999824e-01 -2.519040000000000168e-01 -2.069610000000000061e-01 -4.517570000000000197e-01 5.026819999999999622e-01 4.562610000000000277e-01 5.426539999999999697e-01 -5.309200000000000030e-02 3.142429999999999946e-01 8.669899999999999829e-02 -7.612449999999999495e-01 -5.264259999999999495e-01 -1.480625999999999998e+00 -3.108639999999999737e-01 7.237580000000000124e-01 -3.903360000000000163e-01 -2.872649999999999926e-01 -2.461780000000000079e-01 -3.826199999999999740e-02 2.435585999999999807e+00 5.691009999999999680e-01 -1.076478000000000046e+00 1.462789999999999924e-01 -5.756599999999999495e-01 6.009999999999999787e-01 1.963529999999999998e-01 1.882258999999999904e+00 3.842189999999999772e-01 -2.424600000000000019e-02 5.245919999999999472e-01 3.799750000000000072e-01 -1.147070000000000034e-01 5.804350000000000342e-01 -1.128460000000000019e-01 -1.304859999999999909e-01 -1.287665000000000060e+00 4.398940000000000072e-01 -9.162940000000000529e-01 3.982140000000000124e-01 -2.905400000000000205e-01 1.381370000000000098e-01 -1.181439999999999990e-01 2.825900000000000079e-01 4.609779999999999989e-01 -3.741320000000000201e-01 -4.847150000000000070e-01 -3.485469999999999957e-01
-1.236939999999999984e-01 2.055599999999999927e-01 -8.281900000000000373e-02 -3.513979999999999881e-01 -1.258966999999999947e+00 -4.754849999999999910e-01 2.984900000000000053e-02 8.321880000000000388e-01 -2.309710000000000096e-01 -7.341379999999999573e-01 -1.692423000000000011e+00 5.296600000000000197e-01 -1.461983999999999950e+00 -4.807020000000000182e-01 -2.861041999999999863e+00 1.240740000000000037e-01 2.685089999999999977e-01 1.187610000000000054e-01 -1.879969999999999974e-01 -2.109699999999999909e-01 5.980109999999999593e-01 5.503959999999999964e-01 -2.687329999999999997e-01 -2.120473000000000052e+00 -6.463750000000000329e-01 1.671794000000000002e+00 -5.757499999999999840e-01 8.622699999999999809e-01 1.403939999999999910e-01 1.141860000000000097e+00 8.995800000000000463e-01 4.036669999999999980e-01 1.128697000000000061e+00 2.140410000000000090e-01 3.170209999999999972e-01 2.132729999999999904e-01 2.791130000000000000e-01 -4.257000000000000367e-03 -2.664869999999999739e-01 -9.342359999999999554e-01 -1.029606999999999939e+00 -9.296510000000000051e-01 7.082000000000000517e-01 7.294249999999999901e-01 1.105819999999999997e-01 2.287399999999999850e-02 2.199949999999999961e-01 -3.104199999999999737e-01 -5.235670000000000046e-01 2.202808999999999795e+00 1.039997000000000060e+00 1.180037999999999920e+00 -7.951599999999999779e-01 9.512460000000000360e-01 -3.951709999999999945e-01 -3.049410000000000176e-01 -9.782599999999999629e-02 4.881260000000000043e-01 -9.456029999999999713e-01 2.118838000000000221e+00
2.838539999999999952e-01 -1.691890000000000061e-01 -2.254470000000000085e-01 5.098740000000000494e-01 2.245709999999999928e-01 -1.745999999999999939e-03 1.039231999999999934e+00 8.534659999999999469e-01 -5.841070000000000428e-01 2.988149999999999973e-01 1.540300000000000002e+00 1.890209999999999946e-01 1.291295000000000082e+00 -2.295010000000000105e-01 -1.383749999999999980e-01 -3.903920000000000168e-01 -4.562080000000000024e-01 2.917130000000000001e-01 2.025790000000000091e-01 -1.150370000000000004e-01 2.159800000000000053e-01 2.419020000000000059e-01 9.596780000000000310e-01 1.177050000000000041e-01 4.809499999999999886e-02 6.864550000000000374e-01 -3.149730000000000030e-01 1.781570000000000098e-01 -5.939269999999999827e-01 6.444569999999999466e-01 -1.158822000000000019e+00 -5.646299999999999930e-02 -6.404769999999999630e-01 -6.818800000000000416e-01 -1.472442000000000029e+00 5.367159999999999709e-01 -2.936670000000000114e-01 1.283968999999999916e+00 8.572599999999999665e-02 2.283389999999999864e-01 -5.513120000000000243e-01 1.228912999999999922e+00 -3.806180000000000119e-01 -6.819739999999999691e-01 -9.136800000000000477e-02 8.497529999999999806e-01 -3.081840000000000135e-01 -4.042620000000000102e-01 -8.980259999999999909e-01 7.854899999999999383e-02 -8.613830000000000098e-01 -5.321620000000000239e-01 -5.137639999999999985e-01 1.091779999999999973e-01 4.357699999999999768e-02 -2.385760000000000103e-01 -2.368939999999999935e-01 -8.799040000000000195e-01 -2.404100000000000126e-01 7.962199999999999833e-02
-4.687609999999999832e-01 2.460549999999999959e-01 1.082988000000000062e+00 -1.897377000000000091e+00 -1.085067999999999921e+00 -1.764399999999999996e-02 -1.644720000000000071e-01 9.273280000000000411e-01 -5.390040000000000386e-01 1.857336000000000098e+00 -3.368700000000000028e-01 -4.968699999999999783e-01 -7.058999999999999997e-02 4.404620000000000202e-01 -8.040600000000000525e-02 -6.957440000000000291e-01 1.497662000000000049e+00 9.942590000000000039e-01 -9.894439999999999902e-01 -2.522449999999999970e-01 -5.110249999999999515e-01 -7.245200000000000251e-02 9.487099999999999700e-02 -5.681640000000000024e-01 -5.358239999999999670e-01 2.438753999999999866e+00 -5.946599999999999803e-02 3.455489999999999950e-01 -1.348132000000000108e+00 1.683439999999999936e-01 -9.025590000000000002e-01 -6.473199999999999787e-02 -2.617149999999999754e-01 5.237439999999999873e-01 3.727900000000000102e-01 -3.338380000000000236e-01 1.131126999999999994e+00 -1.860367000000000104e+00 -6.548209999999999864e-01 4.536149999999999904e-01 -1.490718999999999905e+00 7.554340000000000499e-01 -2.408799999999999830e-02 -7.951829999999999732e-01 5.128009999999999513e-01 8.344899999999999540e-01 3.681880000000000153e-01 -6.082840000000000469e-01 6.065960000000000241e-01 7.534299999999999331e-02 1.838700000000000057e-02 -1.015541999999999945e+00 4.856320000000000081e-01 4.045659999999999812e-01 6.511130000000000528e-01 -3.533999999999999919e-01 -8.535700000000000509e-01 4.332829999999999737e-01 6.396309999999999496e-01 1.048027000000000042e+00
7.765940000000000065e-01 1.972600000000000048e-02 -4.973739999999999828e-01 -4.814950000000000063e-01 -6.575929999999999831e-01 -7.501299999999999635e-02 -8.691179999999999461e-01 3.933559999999999834e-01 -6.376910000000000078e-01 1.150479000000000029e+00 2.790009999999999990e-01 -8.511980000000000102e-01 -1.461519999999999930e+00 3.716380000000000239e-01 5.717950000000000532e-01 2.075589999999999935e-01 5.773719999999999963e-01 -6.316370000000000040e-01 1.244853999999999905e+00 -2.784010000000000096e-01 6.363750000000000240e-01 1.365460000000000007e-01 8.336459999999999981e-01 2.915130000000000221e-01 6.485720000000000374e-01 4.459299999999999931e-01 -1.586100000000000010e-01 2.382599999999999996e-01 -1.602339999999999876e-01 1.094225999999999921e+00 -3.109419999999999962e-01 4.658630000000000271e-01 1.359229999999999883e-01 -7.107379999999999809e-01 -8.555770000000000319e-01 3.684760000000000257e-01 -8.086940000000000239e-01 -7.292800000000000671e-02 -4.881510000000000016e-01 -6.910079999999999556e-01 -1.892870000000000108e-01 -9.130570000000000075e-01 4.022620000000000084e-01 1.159461999999999993e+00 5.575989999999999558e-01 -1.119791999999999899e+00 -9.246119999999999894e-01 2.582050000000000178e-01 2.597229999999999817e-01 1.936859999999999971e-01 -5.030320000000000347e-01 6.920230000000000548e-01 -1.074000000000000085e-03 7.510200000000000209e-01 3.259199999999999875e-01 -1.263851999999999975e+00 3.325549999999999895e-01 3.705129999999999812e-01 -3.361190000000000011e-01 -2.419260000000000022e-01
-3.188940000000000108e-01 -5.264839999999999520e-01 -8.788380000000000081e-01 7.572579999999999867e-01 8.541269999999999696e-01 -4.539360000000000062e-01 -5.220850000000000213e-01 4.992659999999999876e-01 -7.774459999999999704e-01 2.961610000000000076e-01 -9.003849999999999909e-01 1.369960999999999984e+00 3.734580000000000122e-01 -1.398520000000000041e-01 9.208099999999999619e-02 -3.873759999999999981e-01 7.821810000000000151e-01 -7.263129999999999864e-01 1.299600000000000061e-02 -1.404215999999999909e+00 1.058708999999999900e+00 4.276150000000000229e-01 4.063169999999999837e-01 8.433779999999999610e-01 -9.153430000000000177e-01 1.320289999999999964e+00 1.310610000000000108e-01 1.175810000000000022e+00 -1.852810000000000012e-01 2.112209999999999921e-01 7.192539999999999489e-01 -1.344664999999999999e+00 5.109699999999999659e-02 -3.507919999999999927e-01 6.517299999999999482e-02 -2.230010000000000048e-01 -6.090790000000000370e-01 2.727720000000000145e-01 -1.255752999999999897e+00 2.640370000000000217e-01 3.550929999999999920e-01 1.834520000000000040e-01 -1.961970000000000103e-01 1.919029999999999903e-01 4.655369999999999786e-01 -2.807700000000000196e-01 3.966970000000000218e-01 -7.832590000000000385e-01 -1.035029999999999978e-01 3.908209999999999740e-01 4.229859999999999731e-01 -1.367269999999999874e-01 -2.005999999999999971e-03 -2.918810000000000016e-01 -1.373080000000000134e-01 -7.386960000000000193e-01 2.680080000000000240e-01 -6.851400000000000545e-02 -2.930570000000000119e-01 2.929359999999999742e-01
-1.790907999999999944e+00 1.645501000000000102e+00 1.489055999999999935e+00 2.608276000000000039e+00 5.522120000000000362e-01 -8.328809999999999825e-01 8.822800000000000087e-02 -1.786400999999999906e+00 5.830640000000000267e-01 3.303969999999999962e-01 2.640159999999999729e-01 1.154925999999999897e+00 -9.698579999999999979e-01 1.236563000000000079e+00 2.794122000000000217e+00 -3.899899999999999894e-02 3.299929999999999808e-01 -7.711409999999999654e-01 5.340580000000000327e-01 -5.503999999999999865e-02 -2.602110000000000256e-01 6.770829999999999904e-01 3.325949999999999740e-01 1.069259999999999933e-01 6.314859999999999918e-01 3.327600000000000002e-02 -1.728169999999999984e-01 1.221751999999999949e+00 3.624029999999999752e-01 -2.210029000000000021e+00 2.728999999999999829e-02 8.105200000000000182e-01 3.602989999999999804e-01 -1.221460000000000046e-01 -9.957019999999999760e-01 -6.943580000000000307e-01 -4.636259999999999826e-01 7.612989999999999480e-01 1.243490000000000012e-01 -1.799090000000000134e-01 -9.267750000000000155e-01 6.037379999999999969e-01 -2.813780000000000170e-01 2.445170000000000121e-01 5.891990000000000283e-01 -1.417069999999999996e-01 -8.879230000000000178e-01 -2.138250000000000206e+00 -6.449179999999999913e-01 4.906010000000000093e-01 -6.382160000000000055e-01 -1.667853000000000030e+00 -1.264431000000000083e+00 7.730540000000000189e-01 5.544639999999999569e-01 -9.491760000000000197e-01 -7.108989999999999476e-01 -3.717320000000000069e-01 -1.980490000000000028e-01 -1.499280000000000057e-01
-2.387450000000000128e-01 -1.111399999999999944e+00 -1.092036999999999924e+00 -5.668170000000000153e-01 -4.943960000000000021e-01 6.625739999999999963e-01 1.028006999999999893e+00 -4.237549999999999928e-01 -3.882689999999999753e-01 -3.340480000000000116e-01 -5.450880000000000170e-01 -1.487680000000000113e-01 8.583570000000000366e-01 -4.088519999999999932e-01 -2.291519999999999946e-01 -1.439395999999999898e+00 -1.225649999999999906e+00 8.459130000000000260e-01 -1.182833999999999941e+00 -7.869169999999999776e-01 1.077434999999999921e+00 -3.530170000000000252e-01 6.589040000000000452e-01 7.335319999999999618e-01 -7.469499999999999751e-02 6.390679999999999694e-01 1.100751999999999953e+00 6.027059999999999640e-01 -5.514100000000000251e-02 -2.143279999999999907e-01 -8.107600000000000362e-01 6.370440000000000547e-01 1.844349999999999878e-01 3.864250000000000185e-01 5.349960000000000271e-01 -8.768029999999999990e-01 8.859350000000000280e-01 5.098759999999999959e-01 -1.095499999999999918e+00 6.814799999999999747e-01 3.973400000000000265e-01 1.020820000000000061e-01 -2.059699999999999864e-01 9.852830000000000199e-01 1.072324000000000055e+00 -6.719600000000000573e-02 -1.060381000000000018e+00 5.418230000000000546e-01 4.788330000000000086e-01 6.036510000000000487e-01 -5.460999999999999882e-02 7.570399999999999352e-02 5.256000000000000255e-03 -3.370759999999999867e-01 3.911810000000000009e-01 4.562999999999999695e-02 -7.960949999999999971e-01 -1.151500000000000024e-01 1.094532000000000060e+00 -1.088232000000000088e+00
-3.852960000000000274e-01 -1.173820000000000002e-01 7.988140000000000240e-01 5.455299999999999594e-01 6.329320000000000501e-01 1.322650000000000103e+00 -4.043430000000000080e-01 8.402209999999999956e-01 5.150010000000000421e-01 1.885610000000000064e-01 -1.731910999999999978e+00 1.085819000000000090e+00 5.073210000000000219e-01 4.065130000000000132e-01 7.625650000000000484e-01 -3.821100000000000191e-02 7.304690000000000349e-01 -9.085919999999999552e-01 2.049498999999999960e+00 1.799929999999999863e-01 8.503399999999999848e-01 1.990969999999999962e-01 -1.781099999999999905e-01 2.012500000000000122e-01 -1.068199999999999983e-01 -1.464700000000000030e-02 -5.030799999999999716e-01 5.331700000000000328e-01 -5.675799999999999734e-01 -1.636185000000000000e+00 4.205969999999999986e-01 6.361120000000000108e-01 1.416060000000000096e-01 -7.123100000000000265e-02 3.524840000000000195e-01 -8.798409999999999842e-01 -1.123879000000000072e+00 -1.297689999999999955e-01 1.803410000000000013e-01 -3.231780000000000208e-01 3.698790000000000133e-01 1.285725000000000007e+00 -4.092879999999999852e-01 -1.405600000000000079e-02 -9.500920000000000476e-01 2.756560000000000121e-01 -5.790189999999999504e-01 -3.617969999999999797e-01 -1.483022000000000062e+00 6.384819999999999940e-01 9.051299999999999624e-02 -3.093569999999999931e-01 -3.631739999999999968e-01 1.955189999999999984e-01 6.945970000000000200e-01 -1.396325999999999956e+00 -9.593329999999999913e-01 -7.594030000000000502e-01 3.048910000000000231e-01 -1.231222000000000039e+00
5.248730000000000340e-01 1.458101000000000091e+00 1.002755000000000063e+00 -1.759749999999999925e-01 -1.141172000000000075e+00 1.080465999999999926e+00 3.079979999999999940e-01 9.391899999999999693e-01 -8.508599999999999497e-01 4.109840000000000160e-01 -1.110705000000000053e+00 -2.629700000000000093e-02 3.284900000000000042e-01 -2.432219999999999938e-01 -1.345463000000000076e+00 1.844499999999999959e-02 -4.338000000000000189e-02 2.070200000000000096e-01 5.745550000000000379e-01 -1.336519000000000013e+00 -5.148049999999999571e-01 -6.565969999999999862e-01 2.348409999999999942e-01 1.267210000000000003e-01 -5.548539999999999583e-01 -1.427165000000000017e+00 1.287100000000000050e-02 -1.128246000000000082e+00 -4.682709999999999928e-01 -5.109709999999999530e-01 9.847209999999999575e-01 7.459879999999999844e-01 -1.794850000000000056e-01 1.642849999999999866e-01 5.592620000000000369e-01 -6.638650000000000384e-01 5.020649999999999835e-01 -2.069789999999999963e-01 6.685590000000000144e-01 4.424620000000000219e-01 4.427849999999999842e-01 4.368870000000000253e-01 -7.871470000000000411e-01 9.748329999999999496e-01 4.326220000000000065e-01 -8.724099999999999910e-02 -1.572109999999999896e-01 -8.728010000000000490e-01 -6.824729999999999963e-01 -2.159169999999999978e-01 6.119400000000000395e-01 3.509419999999999762e-01 -4.467880000000000185e-01 -2.085140000000000049e-01 -3.904710000000000125e-01 7.907990000000000297e-01 5.897449999999999637e-01 -1.468160000000000021e-01 6.515309999999999713e-01 3.474000000000000091e-03
5.020940000000000403e-01 1.135386999999999924e+00 1.258620000000000017e-01 -5.241099999999999925e-02 -7.817830000000000057e-01 3.040260000000000185e-01 -4.108099999999999946e-02 -3.886669999999999847e-01 3.842639999999999945e-01 4.769930000000000003e-01 8.107699999999999907e-01 -1.823899999999999827e-02 -1.632357999999999976e+00 -1.078209999999999891e+00 -9.773400000000000143e-02 1.132743999999999973e+00 -9.838719999999999688e-01 2.465050000000000019e-01 1.060620000000000035e-01 8.784520000000000106e-01 9.747500000000000608e-02 -1.735146999999999995e+00 1.343699999999999894e+00 4.174459999999999837e-01 -1.882657000000000025e+00 -7.346730000000000205e-01 -1.134610000000000063e-01 6.521569999999999867e-01 1.316986999999999908e+00 -3.367850000000000010e-01 1.377815000000000012e+00 -7.681999999999999940e-02 4.856969999999999898e-01 3.543990000000000196e-01 -5.469030000000000280e-01 -8.538339999999999819e-01 -5.303029999999999688e-01 7.618059999999999832e-01 -7.667530000000000179e-01 1.146770000000000067e+00 -8.283310000000000395e-01 5.320970000000000422e-01 -5.973349999999999493e-01 -6.770859999999999657e-01 4.565649999999999986e-01 -9.684249999999999803e-01 9.046000000000000221e-03 -3.636690000000000200e-01 -6.453989999999999450e-01 5.877459999999999907e-01 4.859899999999999776e-01 1.726496000000000031e+00 -5.734000000000000208e-02 -8.259929999999999772e-01 -1.513770000000000115e-01 2.189959999999999962e-01 3.982800000000000229e-02 7.609629999999999450e-01 -9.092050000000000409e-01 -1.992859999999999909e-01
8.061760000000000037e-01 -4.808300000000000074e-02 -3.592199999999999838e-01 -3.430039999999999756e-01 3.596650000000000125e-01 -4.380709999999999882e-01 1.467567000000000066e+00 6.420280000000000431e-01 -9.731049999999999978e-01 7.852470000000000283e-01 9.850680000000000547e-01 -2.345007999999999981e+00 -1.225314999999999932e+00 -1.174830999999999959e+00 -1.824169999999999958e-01 -5.691199999999999731e-02 1.131685999999999970e+00 -6.614630000000000232e-01 -5.225809999999999622e-01 -2.589380000000000015e-01 -5.474930000000000074e-01 -6.721369999999999845e-01 -1.236529999999999990e-01 -2.632430000000000048e-01 -1.403921999999999892e+00 5.374999999999999778e-01 1.513158999999999921e+00 -2.728799999999999976e-02 -1.203289000000000053e+00 1.759236000000000022e+00 -9.531699999999999895e-02 -6.847069999999999546e-01 4.837799999999999739e-02 -1.243266999999999900e+00 1.183699000000000057e+00 8.202509999999999524e-01 -4.377679999999999905e-01 1.259440000000000004e-01 1.113361999999999963e+00 2.711759999999999726e-01 -1.660485999999999907e+00 9.665110000000000090e-01 -1.892369999999999886e-01 1.111815999999999915e+00 -1.520680000000000087e-01 2.764289999999999803e-01 -3.048020000000000174e-01 -8.889850000000000252e-01 2.817990000000000217e-01 6.757999999999999563e-01 -2.395390000000000019e-01 -7.798629999999999729e-01 -4.103060000000000040e-01 3.987829999999999986e-01 1.652052000000000076e+00 -4.130190000000000250e-01 -2.100009999999999932e-01 1.456164999999999932e+00 -4.710900000000000087e-01 6.409329999999999750e-01
-1.475599000000000105e+00 7.923919999999999852e-01 5.769279999999999964e-01 4.236590000000000078e-01 5.574810000000000043e-01 2.001145000000000174e+00 -2.807049999999999823e-01 -8.146029999999999660e-01 -1.523498999999999937e+00 1.090269999999999989e-01 5.153280000000000083e-01 -2.261940000000000062e-01 1.886510000000000131e-01 -1.346479999999999899e-01 5.765900000000000192e-02 -4.048790999999999585e+00 -1.429851999999999901e+00 -3.275770000000000071e-01 -2.724999999999999992e-02 2.010540000000000105e-01 2.472880000000000078e-01 1.434433000000000069e+00 -8.009340000000000348e-01 -1.365620999999999974e+00 1.310551999999999939e+00 1.391229999999999967e-01 4.837799999999999878e-01 5.261360000000000481e-01 -6.416570000000000329e-01 -6.170480000000000409e-01 -8.761600000000000499e-01 -4.514300000000000257e-02 1.384242999999999890e+00 9.314390000000000169e-01 2.362920000000000020e-01 6.403539999999999788e-01 3.676000000000000014e-03 -4.777930000000000232e-01 -8.513810000000000544e-01 1.832040000000000057e-01 -3.219049999999999967e-01 3.872599999999999654e-02 2.928821999999999814e+00 3.444389999999999952e-01 -1.363852999999999982e+00 6.855500000000000482e-02 -1.824179999999999968e-01 -2.699829999999999730e-01 -2.141369999999999940e-01 8.693729999999999514e-01 1.426320000000000088e-01 -3.226859999999999729e-01 -5.165159999999999751e-01 -2.953120000000000189e-01 -1.096173000000000064e+00 1.323309000000000069e+00 1.570600000000000052e-01 2.333459999999999979e-01 3.866760000000000197e-01 1.110651999999999973e+00
-7.514690000000000536e-01 -2.181452000000000169e+00 -1.057797000000000098e+00 9.209810000000000496e-01 1.350760000000000016e-01 -8.429399999999999393e-02 1.940489999999999993e-01 1.136506999999999934e+00 -1.128433999999999937e+00 4.943600000000000078e-02 -2.139550000000000063e-01 8.214320000000000510e-01 6.408500000000000307e-01 9.389100000000000223e-02 4.899970000000000159e-01 2.162236000000000047e+00 -4.272139999999999826e-01 6.846480000000000343e-01 2.821890000000000231e-01 1.338080000000000103e-01 -1.602040000000000131e-01 -1.039606999999999948e+00 -4.005630000000000024e-01 1.135758999999999963e+00 1.546700000000000019e-01 -7.314340000000000286e-01 -2.545169999999999932e-01 -9.432599999999999318e-02 3.631349999999999856e-01 1.460442000000000018e+00 1.911899999999999988e-01 -1.097100000000000020e-01 1.676499999999999935e-01 2.946369999999999822e-01 1.188666000000000000e+00 6.271609999999999685e-01 -6.769220000000000237e-01 4.430259999999999754e-01 -1.772469999999999879e-01 1.314859999999999918e-01 2.019369999999999887e+00 -1.090902999999999956e+00 -9.525609999999999911e-01 -1.970240000000000047e-01 -1.113758999999999943e+00 2.824479999999999769e-01 7.637209999999999832e-01 -1.479199999999999959e-01 2.487630000000000119e-01 -1.255640000000000089e+00 -4.306900000000000311e-02 -1.113167000000000018e+00 -1.110320000000000057e-01 2.624980000000000091e-01 -4.817210000000000103e-01 -3.475289999999999768e-01 -2.252699999999999841e-02 -4.431620000000000004e-01 -3.016460000000000252e-01 -3.689149999999999929e-01
-2.108486999999999778e+00 -7.792670000000000430e-01 5.222670000000000368e-01 7.554199999999999804e-02 -5.613569999999999949e-01 8.790639999999999565e-01 1.559909999999999908e-01 4.271490000000000009e-01 -5.428659999999999597e-01 1.223879999999999968e-01 -2.116649999999999920e-01 1.539459999999999995e-01 -4.742190000000000016e-01 -4.950330000000000008e-01 1.076770000000000005e+00 7.469820000000000348e-01 -6.518200000000000383e-02 -2.429719999999999935e-01 -1.099320000000000019e-01 -1.433840000000000114e-01 2.492799999999999877e-02 -5.337140000000000217e-01 1.349700000000000032e-02 1.445150000000000046e-01 1.591607999999999912e+00 1.654001000000000055e+00 -5.936080000000000245e-01 -1.315242999999999940e+00 -2.535000000000000100e-02 -1.073709999999999942e-01 3.199690000000000034e-01 1.663590000000000069e-01 -1.480200000000000127e-01 1.367758999999999947e+00 6.976200000000000456e-02 3.336899999999999866e-01 4.589960000000000151e-01 -6.641500000000000181e-02 -3.047300000000000009e-01 -7.864630000000000232e-01 2.320550000000000113e-01 -4.553989999999999982e-01 -6.088699999999999668e-02 1.236100000000000046e-02 -9.012820000000000276e-01 3.211740000000000150e-01 -5.651199999999999973e-02 1.680869999999999864e-01 -8.999150000000000205e-01 -4.558949999999999947e-01 -3.072710000000000163e-01 -6.101529999999999454e-01 3.044430000000000192e-01 -7.156700000000000561e-02 1.296848000000000001e+00 -2.173150000000000082e-01 -1.350639999999999896e-01 4.417559999999999820e-01 1.977480000000000071e-01 5.068829999999999725e-01
1.063879999999999937e+00 1.051987999999999923e+00 -4.173049999999999815e-01 -1.083960000000000062e-01 -3.573740000000000250e-01 -3.941239999999999744e-01 -3.846499999999999919e-02 -6.099339999999999762e-01 -1.400665999999999967e+00 3.063730000000000064e-01 1.474906000000000050e+00 -6.303899999999999781e-02 -1.260069000000000106e+00 -1.267230999999999996e+00 8.273019999999999818e-01 4.625040000000000262e-01 1.088273000000000046e+00 -6.115460000000000340e-01 -4.474529999999999896e-01 4.771700000000000247e-02 9.242449999999999832e-01 -1.801550000000000096e-01 -3.295170000000000043e-01 -5.944479999999999764e-01 -4.670489999999999919e-01 -6.417549999999999644e-01 -1.895870000000000055e-01 -4.911949999999999927e-01 -6.567939999999999889e-01 3.854090000000000016e-01 1.616219999999999879e-01 -2.083849999999999869e-01 1.421728000000000103e+00 -4.218290000000000095e-01 -1.855590000000000017e-01 2.490320000000000034e-01 2.094320000000000070e-01 3.924039999999999750e-01 -6.518319999999999670e-01 4.377690000000000192e-01 1.957430000000000003e-01 7.164399999999999658e-01 -9.176600000000000312e-01 7.903729999999999922e-01 -4.964870000000000116e-01 -3.879300000000000109e-02 1.105399999999999959e-02 1.868630000000000013e-01 5.934040000000000425e-01 2.707649999999999779e-01 -6.105880000000000196e-01 -3.883199999999999846e-02 -6.465499999999999581e-01 1.388238000000000083e+00 5.238490000000000091e-01 5.073239999999999972e-01 5.686800000000000188e-02 6.510669999999999513e-01 -9.274480000000000501e-01 -7.265019999999999811e-01
-3.133230000000000182e-01 -1.813589999999999924e-01 8.258899999999999575e-02 -5.886470000000000313e-01 -8.670989999999999531e-01 2.668639999999999901e-01 -6.896229999999999860e-01 9.557259999999999645e-01 6.565509999999999957e-01 -9.151299999999999712e-02 7.426199999999999468e-02 6.996999999999999886e-01 3.903399999999999925e-02 -9.952069999999999528e-01 5.613190000000000124e-01 7.859530000000000127e-01 6.615889999999999826e-01 1.195039999999999991e-01 -3.545090000000000185e-01 1.089880000000000015e-01 -3.061150000000000260e-01 -5.564660000000000162e-01 5.952800000000000313e-01 -3.400949999999999807e-01 7.834790000000000365e-01 6.882989999999999942e-01 -8.297619999999999996e-01 -1.108800000000000063e-02 -2.263709999999999889e-01 3.020590000000000219e-01 2.723570000000000157e-01 4.140070000000000139e-01 -4.797130000000000005e-01 2.652840000000000198e-01 2.798329999999999984e-01 -4.532829999999999915e-01 3.811749999999999861e-01 2.586769999999999903e-01 3.523540000000000005e-01 -1.335569000000000006e+00 8.719000000000000083e-01 -6.028670000000000417e-01 4.323649999999999993e-01 -9.164379999999999749e-01 -5.717300000000000160e-02 8.660700000000000343e-02 -9.912469999999999892e-01 -4.291659999999999919e-01 4.044389999999999930e-01 2.451969999999999983e-01 -2.283010000000000039e-01 3.846339999999999759e-01 -2.765239999999999920e-01 -1.300749999999999962e-01 -3.363940000000000263e-01 -5.743350000000000399e-01 5.680739999999999679e-01 4.418050000000000033e-01 -1.251780000000000115e-01 2.475350000000000050e-01
3.055840000000000223e-01 1.622101999999999933e+00 8.322249999999999925e-01 -1.849480000000000013e-01 5.659070000000000489e-01 -3.308420000000000250e-01 2.960450000000000026e-01 -3.768699999999999828e-02 1.101971000000000034e+00 -3.260890000000000177e-01 -2.013570000000000082e-01 -5.740229999999999499e-01 -4.086299999999999655e-02 5.873400000000000148e-02 8.051829999999999821e-01 2.799340000000000162e-01 4.462969999999999993e-01 -1.593579999999999997e-01 -6.700709999999999722e-01 -2.153000000000000053e-02 -1.913189999999999891e-01 1.021630000000000038e-01 -4.008720000000000061e-01 -5.682890000000000441e-01 -2.359420000000000128e-01 -7.347540000000000182e-01 -7.662959999999999772e-01 8.242380000000000262e-01 -5.416170000000000151e-01 6.878739999999999855e-01 -3.656380000000000186e-01 3.296279999999999766e-01 5.178089999999999637e-01 -5.806769999999999987e-01 -6.653120000000000145e-01 -1.868940000000000046e-01 1.883849999999999969e-01 6.517709999999999892e-01 3.182380000000000209e-01 -1.397699999999999984e-02 -1.075585999999999931e+00 2.298959999999999892e-01 1.873950000000000060e-01 3.838239999999999985e-01 4.844040000000000012e-01 -1.293249999999999955e-01 -5.130529999999999813e-01 -1.373110000000000053e+00 1.018725000000000103e+00 -1.456449999999999967e-01 2.114920000000000133e-01 -6.935700000000000198e-02 3.394130000000000202e-01 -8.015219999999999567e-01 -7.475289999999999990e-01 4.210949999999999971e-01 -4.567100000000000326e-02 1.619490000000000096e-01 -4.813580000000000081e-01 -1.917679999999999940e-01
-1.605590000000000073e-01 -9.952889999999999793e-01 3.986350000000000171e-01 7.935630000000000184e-01 2.345670999999999840e+00 -2.659454999999999902e+00 4.805899999999999755e-02 -5.949600000000000027e-02 -8.095099999999999518e-02 5.000839999999999730e-01 3.620099999999999707e-02 -4.583320000000000172e-01 -6.962009999999999588e-01 -1.685389999999999944e-01 4.957269999999999732e-01 1.643639999999999990e+00 -1.794208999999999943e+00 -1.155720999999999998e+00 8.005480000000000373e-01 7.052700000000000635e-02 7.114749999999999686e-01 1.478079999999999949e-01 -1.188179999999999931e-01 7.875600000000000656e-02 6.631719999999999837e-01 4.915820000000000189e-01 -3.879239999999999911e-01 -1.116700000000000054e-01 1.144450000000000051e-01 -3.618400000000000089e-02 7.301490000000000480e-01 1.351482000000000072e+00 -1.601529999999999898e-01 -4.400780000000000247e-01 4.456280000000000241e-01 -3.041869999999999852e-01 -8.553250000000000020e-01 -3.050571000000000144e+00 3.235771999999999871e+00 2.198599999999999860e-02 -8.315839999999999899e-01 -8.343519999999999825e-01 -7.888880000000000337e-01 -4.824849999999999972e-01 8.663499999999999535e-01 -5.974829999999999863e-01 6.284800000000000386e-01 -5.916850000000000165e-01 -1.516569999999999974e+00 1.292712000000000083e+00 7.502569999999999517e-01 -2.238789999999999947e-01 -8.662499999999999367e-02 1.173199999999999937e-01 1.536799999999999972e-02 8.358210000000000361e-01 3.145290000000000030e-01 2.627499999999999974e-02 -2.493199999999999930e-02 -2.998770000000000047e-01