-3.011300000000000088e-01 5.595229999999999926e+00 1.828010000000000090e+01 3.947849999999999859e+00 3.221779999999999866e+00 7.129990000000000272e+00 3.256429999999999936e+00 3.605210000000000026e+00 1.140279999999999916e+01 1.472269999999999968e+00 3.155800000000000161e+00 1.123140000000000027e+00 2.247450000000000170e+00 2.970829999999999860e+00 1.792030000000000101e+01 -8.179000000000000159e-02 1.336270000000000069e+00 5.018819999999999837e+00 2.234490000000000087e+00 4.274299999999999766e-01 1.337240000000000073e+01 1.341229999999999922e+00 2.705799999999999872e-01 9.846009999999999707e+00 1.800869999999999971e+00 6.611220000000000319e+00 1.099770000000000003e+01 1.003619999999999957e+00 4.941970000000000418e+00 1.514630000000000010e+01 3.842200000000000060e-01 5.203020000000000422e+00 5.364429999999999588e+00 -2.717449999999999921e+00 4.886589999999999989e+00 2.260609999999999786e+00 -3.966999999999999693e-02 1.577069999999999972e+00 1.173930000000000007e+01 -1.450919999999999987e+00 5.183600000000000207e+00 1.156900000000000084e+01 -1.555979999999999919e+00 5.287200000000000344e+00 1.556840000000000046e+01 2.739069999999999894e+00 5.275680000000000369e+00 1.334040000000000070e+01 1.075329999999999897e+00 2.889839999999999964e+00 6.852610000000000312e+00 -1.795400000000000107e+00 5.472400000000000375e+00 6.965519999999999712e+00 -3.914699999999999847e-01 3.265540000000000109e+00 1.943590000000000018e+01 5.104610000000000092e+00 1.126319999999999988e+00 5.817639999999999922e+00 3.983099999999999863e+00 5.223320000000000185e+00 5.032860000000000333e+00 4.382480000000000153e+00 1.971959999999999935e+00 1.293239999999999945e+01 3.738960000000000061e+00 3.744429999999999925e+00 3.717799999999999994e-01 2.340660000000000185e+00 4.665000000000000036e+00 9.190070000000000405e+00 1.538720000000000088e+00 2.105300000000000171e+00 1.541559999999999953e+01 2.283799999999999830e+00 5.723939999999999806e+00 1.746569999999999823e+01 -4.212699999999999778e-01 4.046050000000000146e+00 3.058009999999999895e+00 2.700880000000000170e+00 1.065379999999999994e+00 1.972779999999999845e+01 1.544370000000000021e+00 1.003700000000000037e+00 3.159419999999999895e+00 3.743729999999999780e+00 1.352319999999999967e+00 9.404479999999999507e+00
2.272149999999999892e+00 4.108899999999999775e-01 1.741163999999999845e+01 3.225849999999999884e+00 4.302940000000000431e+00 5.656320000000000014e+00 4.764039999999999608e+00 1.889019999999999921e+00 1.226323999999999970e+01 2.926600000000000090e+00 4.964949999999999974e+00 1.979540000000000077e+00 8.762199999999999989e-01 2.633230000000000182e+00 1.989564000000000021e+01 1.552600000000000091e-01 4.250029999999999752e+00 4.377390000000000114e+00 2.044230000000000214e+00 5.470100000000000406e+00 1.779334000000000060e+01 -1.169910000000000005e+00 4.965110000000000134e+00 1.257583999999999946e+01 3.246989999999999821e+00 4.893749999999999822e+00 1.182883999999999958e+01 4.523600000000000065e+00 4.617849999999999788e+00 1.469964000000000048e+01 5.594450000000000145e+00 4.952300000000000035e-01 3.871579999999999799e+00 -7.667599999999999971e-01 3.982660000000000089e+00 2.859599999999999920e-01 -2.871999999999999886e+00 6.843270000000000408e+00 1.291793999999999976e+01 -1.521460000000000035e+00 2.887950000000000017e+00 1.422084000000000081e+01 4.808600000000000207e+00 4.878169999999999895e+00 1.724734000000000123e+01 2.734329999999999927e+00 3.090040000000000120e+00 1.364963999999999977e+01 9.586799999999999766e-01 5.940389999999999837e+00 5.993990000000000151e+00 4.601880000000000415e+00 4.579019999999999868e+00 7.690039999999999765e+00 6.329349999999999810e+00 1.984180000000000055e+00 2.062094000000000094e+01 5.505449999999999733e+00 3.189810000000000034e+00 3.925790000000000113e+00 4.099990000000000023e+00 6.346779999999999866e+00 3.861180000000000057e+00 8.281300000000000328e-01 6.929400000000000226e+00 1.589154000000000089e+01 4.208260000000000112e+00 3.331459999999999866e+00 5.612000000000000322e-01 5.328100000000000058e+00 3.782799999999999940e+00 1.052919999999999945e+01 3.590999999999999748e-01 2.280409999999999826e+00 1.713944000000000045e+01 1.038980000000000015e+00 5.215980000000000061e+00 2.010564000000000107e+01 1.413999999999999979e-02 5.938419999999999810e+00 1.914800000000000058e+00 3.017520000000000202e+00 1.261060000000000070e+00 1.969763999999999982e+01 2.094279999999999919e+00 2.987859999999999960e+00 3.753429999999999822e+00 1.146209999999999951e+00 6.215959999999999930e+00 1.087617000000000012e+01
-5.491099999999999870e-01 6.378759999999999764e+00 1.850064000000000064e+01 4.725430000000000241e+00 5.127519999999999634e+00 6.034980000000000011e+00 3.857009999999999827e+00 2.029580000000000162e+00 1.250403999999999982e+01 1.692569999999999908e+00 5.129089999999999705e+00 7.607199999999999518e-01 1.167189999999999950e+00 3.128150000000000208e+00 1.904063999999999979e+01 8.218800000000000550e-01 3.143969999999999931e+00 4.684590000000000032e+00 -2.404990000000000183e+00 6.927019999999999733e+00 1.550774000000000008e+01 -2.487410000000000121e+00 5.043219999999999814e+00 1.162613999999999947e+01 1.899890000000000079e+00 4.886239999999999917e+00 1.308953999999999951e+01 -1.464050000000000074e+00 2.922909999999999897e+00 1.605384000000000100e+01 6.381099999999999994e+00 1.105199999999999932e-01 3.879469999999999974e+00 -1.560869999999999980e+00 6.261779999999999902e+00 3.773199999999999887e-01 4.011730000000000018e+00 6.678130000000000344e+00 1.308984000000000059e+01 -1.632209999999999939e+00 3.464820000000000011e+00 1.338283999999999985e+01 -2.762640000000000207e+00 4.772879999999999789e+00 1.732514000000000109e+01 2.177189999999999959e+00 2.744990000000000041e+00 1.434674000000000049e+01 2.168649999999999967e+00 5.330949999999999633e+00 5.840600000000000236e+00 -2.338620000000000143e+00 4.946699999999999875e+00 8.369339999999999336e+00 -6.851599999999999913e-01 4.503940000000000055e+00 2.068804000000000087e+01 5.897890000000000299e+00 2.778529999999999944e+00 4.224359999999999893e+00 1.058820000000000094e+00 5.333799999999999653e-01 4.198570000000000135e+00 4.239309999999999690e+00 6.664099999999999469e-01 1.619643999999999906e+01 3.864430000000000032e+00 6.644630000000000258e+00 1.375000000000000111e-01 3.373520000000000074e+00 3.485360000000000014e+00 1.075066999999999950e+01 1.363800000000000012e-01 1.364980000000000082e+00 1.730313999999999908e+01 1.500799999999999912e+00 5.193060000000000009e+00 1.758823999999999899e+01 4.132970000000000255e+00 2.947400000000000020e-01 2.112960000000000171e+00 3.025380000000000180e+00 1.557069999999999954e+00 1.991704000000000008e+01 2.034749999999999837e+00 3.081500000000000128e+00 2.457500000000000018e+00 -5.464999999999999719e-02 6.357520000000000060e+00 1.158413999999999966e+01
2.160880000000000134e+00 2.022209999999999841e+00 1.990531000000000006e+01 3.748500000000000165e-01 4.716070000000000206e+00 6.873210000000000264e+00 3.342100000000000071e-01 6.653249999999999886e+00 1.113400999999999996e+01 -1.022950000000000026e+00 4.741979999999999862e+00 2.081860999999999962e+01 -2.923200000000000021e+00 5.917519999999999669e+00 1.745120999999999967e+01 4.268690000000000317e+00 4.554190000000000182e+00 4.943100000000000271e+00 5.786450000000000315e+00 6.600700000000000456e-01 1.375090999999999930e+01 5.510040000000000049e+00 3.381200000000000205e+00 1.069838000000000022e+01 2.989489999999999981e+00 3.069620000000000015e+00 1.330570999999999948e+01 1.945800000000000030e-01 2.653410000000000046e+00 1.624811000000000050e+01 6.139850000000000030e+00 1.221209999999999907e+00 5.342190000000000438e+00 5.144449999999999967e+00 1.859569999999999945e+00 1.842840000000000034e+00 5.433699999999999974e+00 3.930449999999999999e+00 1.386941000000000024e+01 6.811399999999999899e+00 7.793499999999999872e-01 1.144360999999999962e+01 -7.901700000000000390e-01 4.269009999999999749e+00 1.816441000000000017e+01 -5.576600000000000446e-01 6.902610000000000134e+00 1.339870999999999945e+01 5.695890000000000342e+00 3.518219999999999903e+00 6.750880000000000436e+00 1.827129999999999921e+00 6.401609999999999800e+00 7.611810000000000187e+00 -3.284219999999999917e+00 6.764859999999999651e+00 2.010200999999999993e+01 9.181700000000000417e-01 3.211279999999999912e+00 5.158319999999999794e+00 -1.591679999999999984e+00 4.216269999999999740e+00 2.074559999999999960e+00 9.142000000000000126e-01 4.479919999999999902e+00 1.415180999999999933e+01 4.645929999999999893e+00 1.279009999999999980e+00 2.075350999999999857e+01 2.967820000000000125e+00 2.303010000000000002e+00 1.052365999999999957e+01 2.662549999999999972e+00 7.048239999999999839e+00 1.646731000000000122e+01 2.406340000000000146e+00 1.481430000000000025e+00 1.719471000000000060e+01 3.563130000000000130e+00 6.771609999999999907e+00 3.634320000000000217e+00 1.448720000000000008e+00 4.113109999999999822e+00 2.101451000000000136e+01 3.741340000000000110e+00 1.546079999999999899e+00 3.933819999999999872e+00 -8.018600000000000172e-01 4.984060000000000379e+00 9.464050000000000296e+00
2.207819999999999894e+00 1.740369999999999973e+00 2.020017999999999958e+01 5.939699999999999980e-01 4.388119999999999798e+00 7.020769999999999733e+00 3.704979999999999940e+00 3.415799999999999947e-01 1.058034999999999926e+01 -1.465759999999999952e+00 4.119729999999999670e+00 2.039778000000000091e+01 -2.656859999999999999e+00 6.757710000000000328e+00 1.750778000000000034e+01 4.808390000000000164e+00 4.613870000000000360e+00 4.240149999999999864e+00 1.827099999999999946e+00 6.924900000000000055e+00 1.381607999999999947e+01 5.514879999999999782e+00 3.228670000000000151e+00 1.121278000000000041e+01 3.141039999999999832e+00 2.935130000000000017e+00 1.316447999999999929e+01 3.988999999999999768e-01 2.954019999999999868e+00 1.640447999999999951e+01 5.933049999999999713e+00 1.115159999999999929e+00 5.777079999999999771e+00 5.606510000000000105e+00 1.459410000000000096e+00 2.080060000000000020e+00 -2.536140000000000061e+00 4.384890000000000398e+00 1.362898000000000032e+01 2.570269999999999833e+00 6.979020000000000223e+00 1.153927999999999976e+01 -1.389420000000000099e+00 4.514400000000000190e+00 1.750638000000000005e+01 -7.443300000000000471e-01 6.962469999999999715e+00 1.398227999999999938e+01 5.538619999999999877e+00 3.759399999999999853e+00 6.728900000000000325e+00 1.927499999999999991e+00 6.324910000000000032e+00 7.964430000000000121e+00 -3.409339999999999815e+00 6.350699999999999790e+00 2.011408000000000129e+01 2.121109999999999829e+00 2.984739999999999949e+00 5.420499999999999652e+00 -1.523930000000000007e+00 4.002799999999999692e+00 2.265390000000000015e+00 1.094230000000000036e+00 4.355620000000000047e+00 1.411128000000000071e+01 4.807879999999999932e+00 1.221459999999999990e+00 2.103208000000000055e+01 2.871719999999999828e+00 2.845499999999999918e+00 1.036091000000000051e+01 6.570780000000000065e+00 8.437000000000000055e-01 1.651017999999999830e+01 2.523379999999999956e+00 2.445489999999999942e+00 1.773948000000000036e+01 -1.550999999999999879e-01 8.149600000000000177e-01 3.971569999999999823e+00 9.307400000000000118e-01 3.865450000000000053e+00 2.072607999999999961e+01 3.588330000000000020e+00 1.552289999999999948e+00 4.061379999999999768e+00 -1.147259999999999946e+00 4.875079999999999636e+00 9.756510000000000460e+00
-5.254999999999999671e-01 6.388480000000000381e+00 1.846177000000000135e+01 4.700479999999999769e+00 5.010340000000000238e+00 5.952960000000000029e+00 3.735720000000000152e+00 2.018050000000000122e+00 1.256926999999999950e+01 1.765749999999999931e+00 5.202980000000000160e+00 7.399000000000000021e-01 1.207570000000000032e+00 3.125179999999999847e+00 1.895686999999999856e+01 8.778799999999999937e-01 3.183479999999999865e+00 4.703319999999999723e+00 -2.351020000000000110e+00 6.753140000000000143e+00 1.540936999999999912e+01 -2.547149999999999803e+00 5.011409999999999698e+00 1.158037000000000027e+01 1.822820000000000107e+00 4.811950000000000394e+00 1.292557000000000045e+01 -1.411010000000000097e+00 2.928609999999999935e+00 1.593017000000000039e+01 6.286850000000000271e+00 1.379599999999999993e-01 3.770779999999999799e+00 -1.597739999999999938e+00 6.389149999999999885e+00 4.188500000000000001e-01 3.990470000000000184e+00 6.638399999999999856e+00 1.304256999999999955e+01 -1.657140000000000057e+00 3.395799999999999930e+00 1.340216999999999992e+01 -2.761530000000000040e+00 4.708779999999999966e+00 1.732507000000000019e+01 2.270420000000000105e+00 2.708709999999999951e+00 1.429416999999999938e+01 2.208480000000000221e+00 5.214579999999999771e+00 5.854580000000000339e+00 -2.358119999999999994e+00 5.067429999999999879e+00 8.433780000000000499e+00 -6.830600000000000005e-01 4.646289999999999587e+00 2.057167000000000101e+01 5.974910000000000387e+00 2.748540000000000205e+00 4.211590000000000167e+00 1.116460000000000008e+00 4.343699999999999783e-01 4.239440000000000097e+00 4.199799999999999756e+00 5.681100000000000039e-01 1.613766999999999996e+01 3.803279999999999994e+00 6.678969999999999629e+00 9.009000000000000341e-02 3.310740000000000016e+00 3.519530000000000047e+00 1.069871999999999979e+01 8.841999999999999860e-02 1.499500000000000055e+00 1.720737000000000094e+01 1.607069999999999999e+00 5.124749999999999694e+00 1.756456999999999979e+01 4.045880000000000365e+00 3.339099999999999846e-01 2.186580000000000190e+00 2.952469999999999928e+00 1.553099999999999925e+00 2.001016999999999868e+01 2.043480000000000185e+00 2.987789999999999946e+00 2.548849999999999838e+00 2.385999999999999927e-02 6.355310000000000237e+00 1.153256999999999977e+01
-4.333000000000000046e-02 5.924409999999999954e+00 1.790767999999999915e+01 4.872889999999999944e+00 4.872910000000000075e+00 6.047430000000000305e+00 3.765499999999999847e+00 2.222630000000000106e+00 1.285918000000000028e+01 2.387999999999999901e+00 4.349350000000000271e+00 7.739800000000000013e-01 7.111399999999999944e-01 2.398940000000000072e+00 1.921547999999999945e+01 7.160499999999999643e-01 4.087819999999999787e+00 3.723570000000000046e+00 1.183410000000000073e+00 1.006499999999999950e+00 1.583907999999999916e+01 -1.753940000000000055e+00 5.109560000000000102e+00 1.161898000000000053e+01 2.297860000000000014e+00 5.565710000000000157e+00 1.265227999999999930e+01 5.408220000000000027e+00 3.194090000000000096e+00 1.611077999999999832e+01 5.721000000000000085e+00 5.802699999999999525e-01 4.216560000000000308e+00 -1.636519999999999975e+00 5.597459999999999880e+00 3.930500000000000105e-01 5.389199999999999546e-01 4.899200000000000221e-01 1.248878000000000021e+01 -1.809609999999999941e+00 3.282300000000000217e+00 1.347058000000000000e+01 -2.740229999999999944e+00 5.516499999999999737e+00 1.752438000000000073e+01 1.453819999999999890e+00 3.277719999999999967e+00 1.392367999999999917e+01 1.628910000000000080e+00 5.201730000000000409e+00 5.843210000000000015e+00 -2.225750000000000117e+00 4.767669999999999852e+00 8.444010000000000460e+00 -2.580999999999999961e-01 3.900650000000000173e+00 2.106947999999999865e+01 -1.813180000000000014e+00 3.456379999999999786e+00 3.939789999999999903e+00 3.165700000000000180e-01 2.073599999999999888e-01 4.855920000000000236e+00 3.977500000000000036e+00 4.358799999999999897e-01 1.527138000000000062e+01 3.532369999999999788e+00 6.450520000000000032e+00 2.133947999999999823e+01 3.893180000000000085e+00 4.284639999999999560e+00 1.087018999999999913e+01 6.833689999999999820e+00 1.563669999999999893e+00 1.736827999999999861e+01 2.018310000000000048e+00 4.355529999999999902e+00 1.832677999999999940e+01 6.343699999999999894e-01 5.823640000000000150e+00 2.143920000000000048e+00 2.974299999999999944e+00 8.954900000000000082e-01 1.962208000000000041e+01 2.376269999999999882e+00 2.353409999999999780e+00 2.650700000000000056e+00 4.542950000000000266e+00 2.210100000000000120e-01 1.135308000000000028e+01
-1.423610000000000042e+00 6.135309999999999597e+00 2.023058999999999941e+01 -2.029539999999999900e+00 5.038669999999999760e+00 8.474579999999999558e+00 -5.116500000000000492e-01 1.552519999999999900e+00 7.555990000000000428e+00 5.075560000000000294e+00 2.909899999999999931e+00 1.509190000000000031e+00 -7.694600000000000328e-01 2.782420000000000115e+00 1.686899000000000015e+01 1.139170000000000016e+00 1.317909999999999915e+00 2.083940000000000126e+00 4.206459999999999866e+00 3.012370000000000214e+00 1.364878999999999998e+01 3.213729999999999976e+00 1.853760000000000074e+00 8.334329999999999572e+00 3.587400000000000033e-01 7.254300000000000193e-01 1.450379000000000040e+01 3.449199999999999822e+00 1.007090000000000041e+00 1.656478999999999857e+01 6.982000000000000428e-01 5.798790000000000333e+00 1.797050000000000036e+00 1.611529999999999907e+00 5.204410000000000203e+00 9.648260000000000502e+00 4.111629999999999896e+00 5.392039999999999722e+00 1.266379000000000055e+01 -5.367699999999999694e-01 6.490219999999999878e+00 1.035435999999999979e+01 7.129600000000000382e-01 3.286100000000000132e-01 1.690108999999999995e+01 -7.250699999999999923e-01 3.205620000000000136e+00 1.417258999999999958e+01 4.962229999999999919e+00 3.140600000000000058e+00 6.972430000000000128e+00 1.862849999999999895e+00 5.944759999999999600e+00 7.247679999999999900e+00 -6.148000000000000131e-01 4.079290000000000305e+00 2.118616000000000099e+01 1.926129999999999898e+00 3.978300000000000169e-01 6.605450000000000266e+00 -1.969619999999999926e+00 5.405710000000000015e+00 3.276260000000000172e+00 2.993469999999999853e+00 6.714099999999999513e-01 1.373309000000000069e+01 4.417229999999999990e+00 1.129429999999999934e+00 2.107508999999999943e+01 8.687700000000000422e-01 2.772320000000000118e+00 9.417699999999999960e+00 4.533419999999999561e+00 2.976669999999999927e+00 1.782309000000000054e+01 5.427199999999999802e-01 5.410619999999999763e+00 1.766469000000000023e+01 2.496220000000000105e+00 3.752190000000000136e+00 2.435369999999999813e+00 4.717799999999999772e-01 5.052299999999999569e-01 2.086618999999999957e+01 6.641350000000000087e+00 1.083010000000000028e+00 3.288800000000000168e+00 4.307620000000000005e+00 3.869779999999999998e+00 1.055743999999999971e+01
2.465320000000000178e+00 1.286829999999999918e+00 1.789103000000000065e+01 2.616029999999999855e+00 4.794900000000000162e+00 6.265880000000000116e+00 5.007970000000000255e+00 2.000160000000000160e+00 1.251313000000000031e+01 2.886680000000000135e+00 5.082259999999999778e+00 2.132969999999999811e+00 5.436299999999999466e-01 2.252930000000000099e+00 2.016452999999999918e+01 8.117000000000000604e-02 4.623829999999999885e+00 3.871980000000000199e+00 2.056360000000000188e+00 5.595399999999999707e+00 1.855312999999999946e+01 -1.159550000000000081e+00 4.931960000000000122e+00 1.248623000000000083e+01 3.393380000000000063e+00 5.325899999999999856e+00 1.253022999999999954e+01 5.126850000000000129e+00 3.637880000000000003e+00 1.568753000000000064e+01 6.149230000000000196e+00 6.249799999999999800e-01 4.294970000000000176e+00 -1.274720000000000075e+00 4.438579999999999970e+00 2.171133000000000024e+01 -2.750160000000000160e+00 6.177570000000000228e+00 1.413622999999999941e+01 -9.194200000000000150e-01 2.439560000000000173e+00 1.404412999999999911e+01 4.555780000000000385e+00 4.746859999999999857e+00 1.807452999999999932e+01 3.047950000000000159e+00 3.060789999999999900e+00 1.384383000000000052e+01 2.832000000000000073e-01 6.399689999999999657e+00 5.767229999999999634e+00 3.770020000000000149e+00 4.984709999999999752e+00 8.190340000000000842e+00 6.549990000000000201e+00 1.886319999999999997e+00 2.156062999999999974e+01 -1.907210000000000072e+00 3.442110000000000003e+00 3.022720000000000073e+00 -3.688600000000000101e+00 6.673300000000000232e+00 3.457809999999999828e+00 5.002460000000000129e+00 6.382700000000000040e-01 1.716553000000000040e+01 4.543960000000000221e+00 3.734220000000000095e+00 3.432000000000000051e-01 5.255040000000000155e+00 4.036800000000000388e+00 1.082015999999999956e+01 8.487999999999999712e-02 2.266010000000000080e+00 1.722303000000000139e+01 1.078969999999999985e+00 4.878599999999999604e+00 2.079402999999999935e+01 7.642999999999999794e-01 6.527490000000000236e+00 1.756809999999999983e+00 2.915490000000000137e+00 1.085450000000000026e+00 2.037482999999999933e+01 2.130900000000000016e+00 3.213439999999999852e+00 4.248520000000000074e+00 1.107890000000000041e+00 6.354779999999999873e+00 1.147592999999999996e+01
2.955849999999999866e+00 2.326859999999999928e+00 2.006146000000000029e+01 4.597360000000000113e+00 5.296030000000000015e+00 5.376240000000000130e+00 2.083089999999999886e+00 6.447650000000000325e+00 1.179166000000000025e+01 6.975799999999999779e-01 6.043040000000000411e+00 9.074299999999999589e-01 -1.360729999999999995e+00 6.398229999999999862e+00 1.798206000000000060e+01 1.302599999999999980e+00 4.619679999999999787e+00 4.592649999999999899e+00 -2.198170000000000179e+00 6.642830000000000013e+00 1.438785999999999987e+01 5.125399999999999956e-01 2.697290000000000187e+00 1.214715999999999951e+01 5.086190000000000211e+00 2.258459999999999912e+00 1.426205999999999996e+01 5.825599999999999667e-01 2.630059999999999842e+00 1.642055999999999827e+01 3.530250000000000110e+00 5.972800000000000331e-01 4.058720000000000105e+00 3.611180000000000057e+00 3.272219999999999906e+00 1.626789999999999958e+00 -1.878290000000000015e+00 4.001940000000000275e+00 1.571795999999999971e+01 -3.163450000000000095e+00 6.412519999999999776e+00 1.190986000000000011e+01 3.148400000000000087e-01 4.661760000000000126e+00 1.824765999999999977e+01 5.361700000000000355e-01 6.511529999999999596e+00 1.475576000000000043e+01 2.353270000000000195e+00 4.698190000000000310e+00 6.732639999999999958e+00 2.306579999999999853e+00 1.407499999999999862e-01 6.141639999999999766e+00 -1.749489999999999990e+00 6.735149999999999970e+00 2.075156000000000134e+01 5.166030000000000122e+00 2.712509999999999977e+00 3.972240000000000215e+00 3.270230000000000192e+00 6.168160000000000309e+00 2.842600000000000016e+00 2.251679999999999904e+00 3.360599999999999810e+00 1.408065999999999995e+01 5.514439999999999564e+00 1.745239999999999903e+00 3.372600000000000042e-01 5.989980000000000082e+00 2.160060000000000091e+00 1.167525999999999975e+01 -3.754859999999999864e+00 6.875130000000000408e+00 1.645955999999999975e+01 3.308279999999999887e+00 2.064680000000000071e+00 1.751716000000000051e+01 -6.461599999999999566e-01 5.121059999999999945e+00 3.034520000000000106e+00 2.181719999999999882e+00 4.757500000000000284e+00 2.109636000000000067e+01 1.519740000000000091e+00 1.571320000000000050e+00 2.627219999999999889e+00 8.292300000000000226e-01 4.679899999999999949e+00 1.043989999999999974e+01
3.090259999999999785e+00 2.416300000000000114e+00 2.024580999999999875e+01 4.741109999999999935e+00 5.130609999999999893e+00 5.044690000000000119e+00 1.868570000000000064e+00 6.245540000000000092e+00 1.217000999999999955e+01 8.551400000000000112e-01 5.959130000000000038e+00 1.230180000000000051e+00 -1.228329999999999922e+00 6.810120000000000395e+00 1.784231000000000122e+01 1.815579999999999972e+00 4.624590000000000423e+00 4.592679999999999652e+00 -2.387280000000000069e+00 6.171920000000000073e+00 1.456170999999999971e+01 5.307600000000000096e-01 2.537520000000000220e+00 1.213430999999999926e+01 4.440470000000000361e+00 2.234510000000000218e+00 1.438141000000000069e+01 7.856999999999999540e-01 2.872609999999999886e+00 1.641711000000000098e+01 3.037389999999999812e+00 1.129369999999999985e+00 4.360669999999999824e+00 4.061650000000000205e+00 3.439039999999999875e+00 1.511779999999999902e+00 -1.683219999999999938e+00 3.664149999999999796e+00 1.568271000000000015e+01 -3.035950000000000149e+00 6.885500000000000398e+00 1.209121000000000024e+01 8.015200000000000102e-01 4.950479999999999769e+00 1.798751000000000033e+01 3.317200000000000149e-01 6.671619999999999884e+00 1.470631000000000022e+01 2.836359999999999992e+00 4.253420000000000201e+00 6.937100000000000044e+00 -1.543020000000000058e+00 6.334880000000000067e+00 6.556939999999999991e+00 -1.858989999999999920e+00 6.869629999999999903e+00 2.040041000000000082e+01 5.158159999999999634e+00 2.676759999999999806e+00 3.990790000000000060e+00 3.124019999999999797e+00 6.057089999999999641e+00 3.054910000000000014e+00 2.084039999999999893e+00 3.319259999999999877e+00 1.426261000000000045e+01 5.459469999999999601e+00 1.460439999999999960e+00 2.338500000000000023e-01 5.615310000000000024e+00 2.174179999999999779e+00 1.202890999999999977e+01 -3.726170000000000204e+00 7.122160000000000046e+00 1.683011000000000124e+01 3.213680000000000092e+00 2.577030000000000154e+00 1.760200999999999993e+01 -4.264700000000000157e-01 5.151709999999999567e+00 3.202370000000000161e+00 2.170859999999999790e+00 4.671400000000000219e+00 2.110301000000000116e+01 1.641620000000000079e+00 2.355150000000000077e+00 2.502240000000000020e+00 3.689500000000000002e-01 4.702149999999999608e+00 1.071269000000000027e+01
2.163240000000000052e+00 1.675189999999999957e+00 2.021956000000000131e+01 5.776700000000000168e-01 4.321670000000000122e+00 7.024280000000000079e+00 3.666780000000000150e+00 3.564899999999999736e-01 1.053978000000000037e+01 -1.506569999999999965e+00 4.039130000000000109e+00 2.031665999999999883e+01 -2.706739999999999924e+00 6.803869999999999862e+00 1.752355999999999980e+01 4.741360000000000241e+00 4.642739999999999867e+00 4.252950000000000230e+00 1.817830000000000057e+00 6.858869999999999578e+00 1.393215999999999966e+01 5.598969999999999558e+00 3.229039999999999910e+00 1.120936000000000021e+01 3.141319999999999890e+00 2.973460000000000214e+00 1.314596000000000053e+01 4.684099999999999930e-01 3.028099999999999792e+00 1.636906000000000105e+01 5.915390000000000370e+00 1.122000000000000108e+00 5.860739999999999839e+00 5.695429999999999993e+00 1.328659999999999952e+00 2.147429999999999950e+00 5.151440000000000019e+00 4.324250000000000149e+00 1.368215999999999966e+01 2.576839999999999797e+00 6.948649999999999771e+00 1.149426000000000059e+01 -1.464930000000000065e+00 4.514199999999999768e+00 1.748076000000000008e+01 -7.910700000000000509e-01 6.953879999999999839e+00 1.391305999999999976e+01 -2.060529999999999973e+00 3.786410000000000053e+00 6.602140000000000342e+00 1.896099999999999897e+00 6.373079999999999856e+00 7.953960000000000363e+00 -3.252089999999999925e+00 6.428860000000000241e+00 2.014166000000000167e+01 2.176470000000000127e+00 3.016950000000000021e+00 5.452160000000000117e+00 -1.449799999999999978e+00 4.029810000000000336e+00 2.171349999999999891e+00 1.048519999999999897e+00 4.315820000000000434e+00 1.407966000000000051e+01 4.746080000000000076e+00 1.322549999999999892e+00 2.103396000000000043e+01 2.839560000000000084e+00 2.891970000000000152e+00 1.048540999999999990e+01 6.620849999999999902e+00 7.960000000000000409e-01 1.643085999999999913e+01 2.605300000000000171e+00 2.554660000000000153e+00 1.783436000000000021e+01 -2.077299999999999980e-01 8.098499999999999588e-01 3.991979999999999862e+00 8.481199999999999850e-01 3.860899999999999999e+00 2.072965999999999909e+01 3.540210000000000079e+00 1.542030000000000012e+00 4.055990000000000428e+00 -1.119769999999999932e+00 4.912440000000000140e+00 9.714219999999999189e+00
2.954759999999999831e+00 3.143780000000000019e+00 1.927120999999999995e+01 4.800379999999999647e+00 4.189029999999999809e+00 5.492320000000000313e+00 9.668099999999999472e-01 5.897350000000000314e+00 1.159240999999999921e+01 8.394000000000000350e-01 6.068880000000000052e+00 6.892399999999999638e-01 -8.636700000000000488e-01 6.822400000000000020e+00 1.777170999999999879e+01 1.619159999999999933e+00 4.449659999999999727e+00 4.255600000000000271e+00 -2.756390000000000118e+00 6.025350000000000428e+00 1.429631000000000007e+01 -7.387799999999999923e-01 2.371980000000000199e+00 1.173850999999999978e+01 3.486639999999999961e+00 2.043039999999999967e+00 1.299860999999999933e+01 1.428940000000000099e+00 2.846299999999999830e+00 1.612810999999999950e+01 3.167300000000000004e+00 1.242320000000000091e+00 5.375899999999999679e+00 4.492090000000000138e+00 3.403109999999999857e+00 2.050060000000000215e+00 -1.997789999999999955e+00 3.506829999999999892e+00 1.360380999999999929e+01 3.951750000000000096e+00 6.497090000000000032e+00 1.188400999999999996e+01 6.450599999999999667e-01 4.728939999999999699e+00 1.789701000000000164e+01 -1.536700000000000010e-01 6.386300000000000310e+00 1.407710999999999935e+01 2.536000000000000032e+00 3.780370000000000008e+00 6.561679999999999957e+00 -1.150199999999999972e-01 5.663879999999999804e+00 6.190380000000000216e+00 2.091489999999999849e+00 6.903099999999999792e-01 2.003271000000000157e+01 5.315150000000000041e+00 2.104459999999999997e+00 4.148240000000000371e+00 3.995769999999999822e+00 5.897219999999999906e+00 3.339389999999999858e+00 1.492580000000000018e+00 3.647440000000000015e+00 1.376951000000000036e+01 5.782549999999999635e+00 1.908060000000000089e+00 3.496799999999999908e-01 4.178639999999999688e+00 1.569220000000000059e+00 1.056817000000000029e+01 4.641500000000000070e-01 6.532200000000000228e-01 1.637741000000000113e+01 3.930719999999999992e+00 2.403399999999999981e+00 1.687781000000000020e+01 -2.738599999999999923e-01 4.759669999999999845e+00 2.456989999999999785e+00 2.872399999999999842e+00 5.276600000000000179e+00 2.080930999999999997e+01 2.269410000000000149e+00 1.788680000000000048e+00 2.659959999999999880e+00 3.816399999999999793e-01 3.758469999999999978e+00 9.957869999999999777e+00