-1.010471110699999997e+02
-9.969026316000000065e+01
-9.999129066999999793e+01
-1.004339726000000041e+02
-1.005414320499999974e+02
-9.985903860000000520e+01
-9.873291767000000618e+01
-1.008176037399999956e+02
-9.930187650999999960e+01
-1.018669022299999938e+02
-1.022197670500000015e+02
-1.010794279999999929e+02
-1.024741247200000061e+02
-1.012219813399999992e+02
-9.958056231999999852e+01
-1.001516287999999975e+02
-1.016607241300000055e+02
-1.020218878799999942e+02
-1.006075168999999931e+02
-9.979678368999999805e+01
-1.004400191699999993e+02
-1.004165911700000038e+02
-1.001039955199999980e+02
-1.017897679999999951e+02
-9.929471132999999838e+01
-1.020167718499999978e+02
-9.945799476999999911e+01
-1.025057112700000062e+02
-1.001453572300000019e+02
-9.924157162999999571e+01
-1.011903521400000017e+02
-1.020471318499999995e+02
-9.985206263000000604e+01
-1.018194931499999996e+02
-1.019277861799999982e+02
-1.009548887299999933e+02
-1.015116489199999990e+02
-1.029210206700000043e+02
-1.018643524099999951e+02
-1.002356184399999961e+02
-1.001119686400000006e+02
-1.002677559199999990e+02
-1.002552148599999953e+02
-1.010810000299999984e+02
-1.014048516600000056e+02
-1.024972666999999973e+02
-1.003063050199999964e+02
-9.924301957999999502e+01
-9.969514660000000106e+01
-9.965920579999999518e+01
-9.944241761000000679e+01
-1.000041234499999945e+02
-1.000657854300000054e+02
-1.020359594600000008e+02
-1.030895086999999961e+02
-1.005065589200000034e+02
-9.965020513999999707e+01
-1.029023558600000001e+02
-1.037591676499999949e+02
-1.016446144599999997e+02
-1.010176759400000037e+02
-1.017484315500000065e+02
-1.019695996800000017e+02
-1.004799041100000068e+02
-1.007938273000000038e+02
-9.942741211000000590e+01
-1.004361375900000013e+02
-1.004324307299999930e+02
-9.909973927999999432e+01
-1.023269499400000058e+02
-1.005723547000000053e+02
-1.007342839700000070e+02
-1.001512582400000042e+02
-1.029178917699999971e+02
-9.995292756000000622e+01
-1.017822043400000069e+02
-1.008017567800000052e+02
-1.002562068600000060e+02
-1.023067386599999935e+02
-1.022891676699999977e+02
-1.018043215499999974e+02
-9.911811183999999741e+01
-1.000839732299999980e+02
-9.991608277000000271e+01
-1.001255100099999993e+02
-1.020730023600000038e+02
-1.021845832300000012e+02
-1.000944108199999931e+02
-1.030606128499999983e+02
-1.016535664700000012e+02
-1.021961680299999955e+02
-1.025586992100000003e+02
-1.032258368600000011e+02
-1.011094007699999935e+02
-1.013420146699999975e+02
-1.015423038600000041e+02
-9.978769078000000547e+01
-9.999797793000000468e+01
-1.010473243400000030e+02
-1.018151206099999939e+02
