-1.052779999999999966e-01 3.118879999999999986e-01 -4.155449999999999977e-01 -3.775479999999999947e-01 -2.733900000000000219e-01 2.017629999999999979e-01 1.861559999999999881e-01 -2.793619999999999992e-01 -7.809629999999999628e-01 -1.519743000000000066e+00 -7.884830000000000449e-01 9.558389999999999942e-01 -6.578469999999999596e-01 -3.753400000000000070e-01 -3.428809999999999913e-01 5.799910000000000343e-01 8.753140000000000365e-01 2.472149999999999903e-01 -3.413039999999999963e-01 8.846859999999999724e-01 4.956010000000000137e-01 -6.462199999999999889e-02 5.193029999999999591e-01 -6.950460000000000527e-01 -7.408989999999999743e-01 1.958930000000000116e-01 5.147140000000000049e-01 -1.905700000000000102e-02 -1.390914999999999901e+00 3.283730000000000260e-01 3.625610000000000221e-01 -3.832699999999999996e-01 3.550960000000000227e-01 9.637199999999999933e-02 1.341288000000000036e+00 1.542783000000000015e+00 1.237775999999999987e+00 1.019903999999999922e+00 -6.059679999999999511e-01 4.379839999999999844e-01 -1.918438000000000088e+00 -6.864499999999999769e-02 7.355979999999999741e-01 -3.402000000000000024e-01 4.824919999999999765e-01 -3.021369999999999889e-01 7.256420000000000092e-01 -2.476150000000000018e-01 2.624000000000000030e-03 6.277800000000000047e-02 -4.392079999999999873e-01 -4.709200000000000191e-02 1.125000000000000028e-01 7.997910000000000297e-01 3.083690000000000042e-01 -1.629919999999999980e-01 -1.659899999999999917e-02 -1.220097999999999905e+00 2.113200000000000148e-02 2.034529999999999950e-01 -7.127919999999999812e-01 -1.173295999999999895e+00 -5.026629999999999709e-01 1.406810000000000005e-01 -1.080564999999999998e+00 5.641439999999999788e-01 6.376230000000000508e-01 8.520199999999999996e-02 -9.051630000000000509e-01 3.820970000000000200e-01 5.163579999999999837e-01 7.287869999999999626e-01 -5.930379999999999541e-01 1.425643999999999911e+00 1.078197999999999990e+00 -2.821020000000000194e-01 -6.606340000000000545e-01 -2.142459999999999920e-01 7.620209999999999484e-01 -2.366959999999999897e-01 -1.482670000000000099e-01 1.065090000000000064e-01 1.842679999999999874e-01 -3.933679999999999954e-01 8.293679999999999941e-01 2.790489999999999915e-01 -2.119683000000000206e+00 1.778289999999999871e-01 5.027340000000000142e-01 -6.023870000000000058e-01
1.221799999999999969e-02 3.578239999999999754e-01 -5.780690000000000550e-01 8.396550000000000402e-01 6.008369999999999544e-01 3.832079999999999931e-01 6.523870000000000502e-01 -7.985480000000000356e-01 1.504290000000000072e-01 -1.207329999999999931e-01 -1.821450000000000014e-01 -2.100289999999999935e-01 -5.678250000000000242e-01 -7.847800000000000331e-01 -9.829329999999999457e-01 -3.315158999999999967e+00 9.545499999999999818e-02 -7.901029999999999998e-01 -2.867899999999999963e-02 4.418199999999999905e-02 -1.243462000000000067e+00 1.287293999999999938e+00 -2.573529999999999984e-01 -1.141785000000000050e+00 -4.255899999999999961e-02 1.107480000000000020e+00 -8.707559999999999745e-01 1.868410000000000071e-01 6.799039999999999528e-01 1.182997999999999994e+00 7.510699999999999321e-02 9.337429999999999897e-01 3.244560000000000222e-01 -1.403070999999999957e+00 -8.621590000000000087e-01 -5.312639999999999585e-01 -9.290300000000000225e-01 -3.880669999999999953e-01 6.953230000000000244e-01 8.292869999999999964e-01 -3.404110000000000191e-01 -6.634600000000000219e-02 -6.435710000000000042e-01 2.959970000000000101e-01 1.775279999999999914e-01 -1.030540000000000012e+00 -4.126159999999999828e-01 -1.427329999999999988e-01 -3.181329999999999991e-01 8.656709999999999683e-01 8.611299999999999510e-01 -5.170799999999999702e-02 -1.602500000000000036e-01 -1.532239999999999991e-01 9.572389999999999510e-01 9.304670000000000440e-01 7.535070000000000379e-01 9.304970000000000185e-01 -4.217739999999999823e-01 2.142969999999999875e-01 5.466200000000000225e-02 3.402470000000000216e-01 -3.463570000000000260e-01 -5.518910000000000204e-01 -3.779959999999999987e-01 6.767640000000000322e-01 6.329360000000000541e-01 4.985850000000000004e-01 -3.833889999999999798e-01 -2.298070000000000113e-01 1.408040000000000125e-01 -2.876429999999999820e-01 7.895250000000000323e-01 9.065700000000000147e-02 9.173900000000000110e-02 8.885400000000000242e-02 3.237400000000000277e-01 6.773139999999999716e-01 8.894030000000000546e-01 -1.938419999999999865e-01 5.872169999999999890e-01 3.685390000000000055e-01 -2.966460000000000208e-01 5.987540000000000084e-01 1.066135999999999973e+00 -1.920690999999999926e+00 -5.878100000000000547e-01 -4.278739999999999766e-01 9.168600000000000361e-02 9.412399999999999656e-01
-3.949369999999999825e-01 -1.244375000000000009e+00 -4.152910000000000212e-01 9.670509999999999939e-01 -1.232899999999999968e-02 -1.228810000000000041e-01 1.070665999999999896e+00 -2.012427999999999884e+00 2.383150999999999797e+00 6.004799999999999721e-02 -1.544679999999999942e-01 7.431759999999999478e-01 1.306900000000000076e-02 1.599049999999999916e-01 -1.106580000000000064e-01 -1.164379999999999971e+00 4.425950000000000162e-01 -1.513339999999999963e-01 5.610169999999999879e-01 -4.448179999999999912e-01 -5.345379999999999576e-01 -2.160559999999999981e-01 7.847929999999999628e-01 -9.059099999999999930e-01 -1.568049999999999999e-01 9.770689999999999653e-01 -1.183604000000000100e+00 -8.029610000000000358e-01 1.323689999999999867e-01 -4.228080000000000171e-01 -4.800440000000000262e-01 1.001071999999999962e+00 -2.457139999999999880e-01 1.821790000000000076e-01 -6.429999999999999952e-03 7.621500000000000496e-02 -5.118319999999999537e-01 4.772689999999999988e-01 7.139269999999999783e-01 2.711680000000000201e-01 -2.018518999999999952e+00 8.322629999999999750e-01 5.018439999999999568e-01 8.691630000000000189e-01 -1.854590000000000127e-01 1.231180000000000052e-01 -4.908950000000000258e-01 9.090200000000000502e-01 -1.233592999999999940e+00 -7.207010000000000360e-01 3.394760000000000000e-01 2.292760000000000076e-01 -1.236489999999999950e-01 1.193800000000000000e-01 3.341199999999999726e-01 2.102539999999999965e-01 3.482839999999999825e-01 5.881129999999999969e-01 7.198020000000000529e-01 4.936880000000000157e-01 3.423379999999999757e-01 -1.299793999999999894e+00 4.532479999999999842e-01 -4.790969999999999951e-01 3.995699999999999807e-01 -1.085274999999999990e+00 -7.442579999999999751e-01 6.467399999999999538e-02 6.062999999999999813e-03 -5.203010000000000135e-01 2.446905000000000108e+00 -2.364748000000000072e+00 -9.535449999999999759e-01 -4.229399999999999826e-02 4.263009999999999855e-01 4.766710000000000114e-01 -2.191800000000000137e-01 -1.262010000000000076e-01 6.847689999999999610e-01 -4.269069999999999809e-01 -3.629240000000000244e-01 1.179950000000000027e-01 3.196229999999999905e-01 1.301390999999999964e+00 4.681989999999999763e-01 4.266269999999999785e-01 -1.141796000000000033e+00 6.661690000000000111e-01 -2.149010000000000087e-01 2.135579999999999978e-01
5.790129999999999999e-01 -6.870290000000000008e-01 -3.119439999999999991e-01 -1.074130999999999947e+00 -5.747449999999999504e-01 -1.304909999999999959e-01 3.822389999999999954e-01 2.507469999999999977e-01 -1.998013999999999957e+00 -6.740180000000000060e-01 4.340240000000000209e-01 3.063699999999999757e-01 1.051431000000000004e+00 3.161680000000000046e-01 9.275210000000000399e-01 -1.223978000000000010e+00 -2.750369999999999759e-01 -1.077293999999999974e+00 3.779540000000000122e-01 5.513780000000000348e-01 1.812170999999999976e+00 -8.282089999999999730e-01 -1.033508000000000093e+00 1.295172999999999908e+00 1.637900000000000120e-02 -3.379739999999999966e-01 -9.982800000000000007e-02 2.954590000000000272e-01 1.713240000000000041e-01 2.355659999999999976e-01 -1.119591000000000003e+00 5.929189999999999738e-01 1.198844000000000021e+00 -5.332800000000000040e-02 3.293989999999999974e-01 6.982399999999999718e-02 -5.320979999999999599e-01 -1.037261999999999906e+00 -8.775579999999999492e-01 -3.465849999999999764e-01 -1.111319999999999947e-01 -7.314730000000000398e-01 -9.058300000000000241e-01 5.289829999999999810e-01 -8.539259999999999629e-01 -1.228733999999999993e+00 8.733119999999999772e-01 2.003455999999999904e+00 -7.353169999999999984e-01 4.346400000000000263e-02 5.495820000000000149e-01 1.504896999999999929e+00 2.170237000000000194e+00 6.467039999999999456e-01 1.507930000000000104e-01 -1.284948999999999897e+00 -1.727869999999999961e-01 1.051096000000000030e+00 -1.237773999999999930e+00 -1.296901000000000082e+00 1.857400000000000023e-02 -2.288260000000000016e-01 -5.727100000000000246e-02 5.177910000000000013e-01 -1.403813999999999895e+00 2.130440000000000111e-01 -4.281460000000000266e-01 -1.890360000000000096e-01 -5.893519999999999870e-01 9.530669999999999975e-01 8.194430000000000325e-01 -1.428500000000000082e-02 -2.475040000000000018e-01 5.679319999999999924e-01 -1.015568000000000026e+00 9.016799999999999815e-02 3.317740000000000133e-01 -4.091150000000000064e-01 1.161729000000000012e+00 -1.353691999999999895e+00 -7.544779999999999820e-01 4.838609999999999856e-01 6.799880000000000368e-01 4.021689999999999987e-01 3.948539999999999828e-01 6.055770000000000319e-01 5.963300000000000267e-01 3.681659999999999933e-01 4.881090000000000151e-01 1.335310000000000108e-01
-1.316219999999999890e-01 -7.851590000000000513e-01 1.004780999999999924e+00 -7.743630000000000235e-01 -8.063150000000000039e-01 -2.295669999999999933e-01 4.235709999999999753e-01 -4.244319999999999760e-01 3.339659999999999851e-01 -1.818021000000000109e+00 2.697459999999999858e-01 -3.796970000000000067e-01 -1.544099999999999917e-01 -1.446919999999999873e-01 9.135600000000000664e-02 -9.844549999999999690e-01 5.639199999999999768e-02 8.336820000000000341e-01 -3.029249999999999998e-01 -6.342000000000000415e-03 2.545309000000000044e+00 4.172000000000000361e-03 -1.093729999999999980e-01 9.405489999999999684e-01 -7.157160000000000188e-01 -4.325740000000000141e-01 8.942569999999999686e-01 -4.323350000000000248e-01 1.028537999999999952e+00 -8.978620000000000489e-01 -1.475769000000000108e+00 5.857670000000000377e-01 5.656569999999999654e-01 -3.027369999999999783e-01 4.156679999999999819e-01 2.080817999999999834e+00 -3.014879999999999782e-01 -9.479640000000000288e-01 -6.630239999999999467e-01 1.469910000000000105e-01 1.026442999999999994e+00 -1.991200000000000081e+00 -3.787889999999999868e-01 -1.566539999999999877e-01 5.942920000000000424e-01 -3.046530000000000071e-01 1.652527000000000079e+00 -6.963120000000000420e-01 5.627959999999999630e-01 -6.527600000000000069e-02 -5.708299999999999486e-01 3.761799999999999866e-02 1.240758999999999945e+00 1.722819999999999907e-01 1.064740999999999937e+00 -2.840700000000000169e-02 -9.506000000000000560e-02 -3.792300000000000115e-01 1.029207999999999901e+00 2.989550000000000263e-01 5.260690000000000088e-01 2.286459999999999881e-01 -7.875149999999999650e-01 1.123399999999999954e-01 -1.363291000000000031e+00 2.701000000000000068e-01 -3.503629999999999800e-01 2.286549999999999971e-01 -1.603888999999999898e+00 6.669500000000000428e-01 -4.341369999999999951e-01 4.110650000000000137e-01 5.742369999999999974e-01 -1.838539999999999897e-01 -6.506589999999999874e-01 6.861589999999999634e-01 -7.075930000000000275e-01 -9.534639999999999782e-01 6.777969999999999828e-01 -8.985769999999999591e-01 -7.994539999999999980e-01 1.010288999999999993e+00 6.547469999999999679e-01 9.005180000000000407e-01 1.687292999999999932e+00 -1.379949000000000092e+00 -5.091419999999999835e-01 6.258519999999999639e-01 4.574909999999999810e-01 -1.109912000000000010e+00
-3.482699999999999685e-02 -1.149183000000000066e+00 -5.463609999999999856e-01 1.702668999999999988e+00 -3.414600000000000274e-02 4.222730000000000095e-01 2.071883999999999837e+00 -1.924941999999999931e+00 -4.042780000000000262e-01 -4.801810000000000245e-01 -7.481280000000000152e-01 9.689200000000000035e-01 -1.747150000000000092e-01 -1.889700000000000060e-02 2.347440000000000082e-01 -1.396360000000000046e+00 -2.015460000000000029e-01 3.320980000000000043e-01 6.361899999999999500e-02 -6.435200000000000642e-02 1.131039999999999962e-01 4.051130000000000009e-01 5.483900000000000441e-01 -8.738829999999999654e-01 1.803599999999999995e-02 7.676479999999999970e-01 -9.165959999999999663e-01 -1.329885999999999902e+00 8.625730000000000341e-01 -2.290780000000000038e-01 3.071030000000000149e-01 3.246829999999999994e-01 4.789410000000000056e-01 8.602500000000000424e-02 -4.827460000000000084e-01 1.883450000000000124e-01 -5.056389999999999496e-01 5.294450000000000545e-01 8.062150000000000150e-01 2.337140000000000051e-01 -1.384085999999999927e+00 -5.734000000000000208e-02 6.278019999999999712e-01 8.260370000000000212e-01 -4.524179999999999868e-01 -1.406465000000000076e+00 3.637710000000000110e-01 2.434161000000000019e+00 -1.661766000000000076e+00 2.263199999999999934e-02 5.667200000000000015e-02 1.416499999999999981e-01 1.412000000000000061e-03 -4.036109999999999975e-01 4.845840000000000147e-01 5.632999999999999986e-03 6.483950000000000546e-01 3.617569999999999952e-01 1.034559999999999924e+00 5.935700000000000420e-01 -3.224569999999999936e-01 -8.980650000000000022e-01 3.740029999999999744e-01 -6.715140000000000553e-01 4.377650000000000152e-01 -1.035176000000000096e+00 -4.823239999999999750e-01 2.982710000000000083e-01 -1.175969999999999932e-01 -3.507219999999999782e-01 1.231560999999999906e+00 -1.241913000000000045e+00 1.295219999999999982e-01 -1.328732999999999942e+00 3.362740000000000173e-01 2.587099999999999955e-01 4.604699999999999904e-01 -1.444189999999999918e-01 7.768789999999999862e-01 -3.991819999999999813e-01 -2.845579999999999776e-01 3.163329999999999753e-01 4.219579999999999997e-01 6.400829999999999576e-01 6.908520000000000216e-01 7.000439999999999996e-01 -2.106167000000000122e+00 1.406060000000000088e-01 -2.028490000000000015e-01 1.855970000000000120e-01
-8.857700000000000295e-02 -1.365810000000000080e-01 -5.527910000000000323e-01 -1.264979999999999993e-01 -8.601000000000000312e-02 -5.107000000000000428e-03 -8.347660000000000080e-01 2.131149999999999989e-01 8.607000000000000067e-03 -6.108360000000000456e-01 -1.910700999999999983e+00 7.050030000000000463e-01 -2.064600000000000116e-02 -5.822289999999999965e-01 -1.906700000000000061e-01 3.130359999999999809e-01 -3.128705000000000069e+00 2.437549999999999883e+00 5.531230000000000313e-01 -2.628530000000000033e-01 -1.126435000000000075e+00 7.623750000000000249e-01 2.255894000000000066e+00 4.352309999999999790e-01 9.711840000000000472e-01 1.786850000000000105e-01 5.666139999999999510e-01 -7.441210000000000324e-01 8.374239999999999462e-01 -6.309430000000000316e-01 3.321870000000000100e-01 2.419989999999999919e-01 3.055030000000000245e-01 1.747071999999999958e+00 -1.957480000000000053e-01 -2.989200000000000190e-01 -9.192400000000000571e-02 -6.457969999999999544e-01 9.294999999999999929e-01 6.313400000000000123e-01 -5.384280000000000177e-01 1.221657999999999911e+00 4.599630000000000107e-01 -8.045949999999999491e-01 -5.972889999999999588e-01 1.012788999999999939e+00 9.223900000000000154e-02 -4.749800000000000133e-01 -4.661359999999999948e-01 1.240219999999999934e-01 2.800099999999999811e-01 1.443099999999999938e-02 -2.053339999999999888e-01 4.596100000000000185e-02 -5.218009999999999593e-01 3.234810000000000185e-01 7.419879999999999809e-01 -9.592410000000000103e-01 -8.215630000000000432e-01 1.250690000000000135e-01 1.022056000000000076e+00 9.336729999999999752e-01 -5.806810000000000027e-01 -1.491300000000000125e-01 6.314009999999999900e-01 9.356940000000000257e-01 -7.146099999999999675e-02 1.066365999999999925e+00 -7.059229999999999672e-01 -1.649296000000000095e+00 -1.179303999999999908e+00 -1.293862999999999985e+00 4.812719999999999776e-01 -9.647599999999999509e-01 6.531919999999999948e-01 1.963209999999999955e-01 9.181920000000000082e-01 -8.028149999999999453e-01 -7.153260000000000174e-01 3.426921999999999802e+00 -2.037278000000000144e+00 -3.010300000000000198e-01 3.277740000000000098e-01 1.014010000000000078e+00 2.425599999999999978e-02 5.446189999999999642e-01 -4.805389999999999939e-01 -1.170614000000000043e+00 -6.531970000000000276e-01 -6.273570000000000535e-01
4.051310000000000189e-01 4.304910000000000125e-01 -1.057269000000000014e+00 -1.019710000000000061e-01 7.336270000000000291e-01 9.519199999999999884e-01 -3.735959999999999837e-01 -6.129609999999999781e-01 -6.174089999999999856e-01 4.721170000000000089e-01 8.094149999999999956e-01 7.777309999999999501e-01 2.038220000000000032e-01 8.908629999999999605e-01 3.261220000000000230e-01 4.968480000000000119e-01 -5.310669999999999558e-01 -4.111380000000000035e-01 6.685969999999999969e-01 -1.473669999999999980e-01 -1.672500000000000028e-02 4.554600000000000315e-02 -1.768649999999999944e-01 1.331248999999999905e+00 -3.890529999999999822e-01 1.779899999999999885e-02 -1.936665000000000081e+00 -2.184159999999999990e-01 -1.104697999999999958e+00 6.657999999999999856e-03 -3.297800000000000176e-01 -4.597669999999999813e-01 4.300640000000000018e-01 7.092899999999999761e-01 1.688939999999999886e-01 2.005649999999999933e-01 -4.505000000000000115e-01 1.120554999999999968e+00 1.296913999999999900e+00 -2.033109999999999917e-01 9.668799999999999617e-02 -3.921209999999999973e-01 3.184100000000000125e-02 8.431809999999999583e-01 1.834041999999999950e+00 -4.022910000000000097e-01 -5.609469999999999734e-01 2.020599999999999896e-01 1.038049999999999917e+00 -2.901489999999999903e-01 -1.156698000000000004e+00 5.890919999999999490e-01 4.633249999999999869e-01 -3.063560000000000172e-01 5.180709999999999482e-01 -1.773968999999999907e+00 5.999510000000000121e-01 -5.814749999999999641e-01 -9.216199999999999393e-02 -4.297700000000000131e-02 1.001457000000000042e+00 7.127820000000000267e-01 -7.557800000000000074e-01 7.069640000000000368e-01 9.515069999999999917e-01 6.246199999999999530e-01 9.096870000000000234e-01 -3.943200000000000177e-02 2.859510000000000107e-01 -2.248469999999999913e-01 -9.526670000000000416e-01 2.809900000000000175e-01 1.979039999999999966e-01 -4.406000000000000194e-02 -4.944330000000000114e-01 -9.070359999999999534e-01 -2.688969999999999971e-01 2.610200000000000020e-02 -1.386459999999999915e-01 -8.193080000000000362e-01 1.499200000000000012e-02 -1.457702999999999971e+00 8.460670000000000135e-01 3.031340000000000146e-01 -1.374819999999999931e+00 4.867969999999999797e-01 -3.512799999999999812e-01 -8.409720000000000528e-01 -6.976759999999999629e-01 -1.954212999999999978e+00
3.665950000000000042e-01 -2.187439999999999940e-01 -5.326279999999999903e-01 -1.307749000000000050e+00 -9.549799999999999955e-02 -2.195031000000000176e+00 7.780730000000000146e-01 -6.265309999999999491e-01 -8.828000000000000777e-03 1.103871999999999964e+00 -2.194010000000000127e-01 -4.241070000000000118e-01 7.975100000000000244e-02 -5.308749999999999858e-01 -3.311660000000000159e-01 -5.770459999999999479e-01 1.017233999999999972e+00 -5.643089999999999495e-01 1.011809999999999932e-01 6.027050000000000463e-01 -1.261714999999999920e+00 8.374540000000000317e-01 -2.628659999999999886e-01 6.695910000000000473e-01 3.603350000000000164e-01 -2.303900000000000045e-02 -1.243070000000000008e-01 1.429080000000000072e-01 1.468929999999999958e-01 -1.771810000000000052e-01 1.339259999999999895e-01 5.410869999999999846e-01 -1.234579000000000093e+00 -1.775123000000000006e+00 3.375090000000000034e-01 7.864989999999999482e-01 -2.718700000000000006e-01 2.450019999999999976e-01 1.151419999999999944e-01 -8.452730000000000521e-01 7.259919999999999707e-01 -2.808289999999999953e-01 -3.188210000000000210e-01 -1.814989999999999937e-01 -1.970959999999999934e-01 -4.975930000000000075e-01 -4.826900000000000079e-01 6.518420000000000325e-01 5.796270000000000033e-01 4.053089999999999749e-01 3.205830000000000068e-01 1.242264000000000035e+00 3.038319999999999910e-01 2.185160000000000213e+00 4.228450000000000264e-01 -1.480000000000000066e-02 -2.568500000000000227e-01 -8.619310000000000027e-01 -1.245608000000000049e+00 1.709360000000000046e-01 -5.638609999999999456e-01 1.716590000000000060e-01 6.906109999999999749e-01 -2.364870000000000028e-01 -1.200380000000000058e-01 -2.923169999999999935e-01 -2.065249999999999864e-01 4.875019999999999909e-01 1.184759999999999980e-01 -3.961959999999999926e-01 4.381000000000000345e-03 -7.247479999999999478e-01 1.245760999999999896e+00 -1.567810000000000037e-01 1.188735000000000097e+00 6.008529999999999704e-01 -2.392000000000000029e-02 5.461949999999999861e-01 -9.150999999999999412e-02 -6.576089999999999991e-01 6.329890000000000239e-01 -8.201699999999999546e-01 7.711500000000000299e-02 2.778160000000000074e-01 8.925149999999999473e-01 -4.445350000000000135e-01 -2.471160000000000023e-01 -1.178059999999999941e-01 2.382150000000000101e-01 4.982309999999999794e-01
3.244319999999999982e-01 6.429600000000000593e-02 1.139628000000000085e+00 -5.986040000000000250e-01 -4.247199999999999864e-01 -9.425700000000000189e-01 -6.481000000000000649e-02 -8.345500000000000140e-01 6.510700000000000376e-01 7.162770000000000525e-01 2.457030000000000047e-01 -6.468230000000000368e-01 -7.101370000000000182e-01 1.070716000000000001e+00 3.908679999999999932e-01 7.219090000000000229e-01 -3.924179999999999890e-01 -2.024595000000000145e+00 8.022740000000000427e-01 -5.794749999999999623e-01 -4.782819999999999849e-01 1.302775000000000016e+00 1.996300000000000019e-01 1.113330000000000014e-01 -1.370004000000000000e+00 -9.851020000000000332e-01 -3.316919999999999868e-01 5.680239999999999734e-01 1.162115000000000009e+00 2.547420000000000240e-01 -2.166760000000000075e-01 1.883205000000000018e+00 -6.735659999999999981e-01 -4.792379999999999973e-01 -1.541059999999999930e-01 1.167350000000000110e+00 3.569899999999999740e-01 -6.878599999999999992e-02 -1.889170000000000016e-01 3.901270000000000016e-01 4.856300000000000061e-01 4.780869999999999842e-01 1.111302000000000012e+00 -1.497697000000000056e+00 -2.790400000000000172e-02 -1.207079999999999959e-01 9.750980000000000203e-01 -9.066819999999999879e-01 7.438979999999999482e-01 5.863299999999999762e-02 1.234115999999999991e+00 -6.025869999999999838e-01 -5.722829999999999862e-01 1.759706999999999910e+00 -3.232630000000000225e-01 2.239949999999999997e-01 -3.958969999999999989e-01 1.022699999999999998e-02 2.584500000000000131e-01 1.473649999999999960e-01 -4.514569999999999972e-01 -1.255516999999999994e+00 7.119680000000000453e-01 -6.270480000000000498e-01 -7.943869999999999543e-01 1.061369999999999952e-01 -8.837390000000000523e-01 -3.213360000000000105e-01 -5.544059999999999544e-01 -1.144927999999999946e+00 5.225950000000000317e-01 -4.887400000000000078e-02 -1.126800000000000024e-02 1.851220000000000088e-01 1.813559999999999894e-01 -3.400920000000000054e-01 -2.215200000000000155e-02 -1.046070000000000055e-01 -2.024140000000000106e-01 -6.922500000000000320e-01 -7.041119999999999601e-01 1.954589999999999939e-01 -5.430000000000000104e-02 -5.863399999999999862e-02 8.861010000000000275e-01 1.290354999999999919e+00 -2.614620000000000277e-01 1.718000000000000083e-02 2.353500000000000036e-02 1.529999999999999936e-02
-3.874239999999999906e-01 -1.125621999999999900e+00 9.696599999999999664e-02 3.229949999999999766e-01 -3.458760000000000168e-01 1.027916999999999970e+00 -2.675199999999999800e-01 9.996070000000000233e-01 3.351230000000000042e-01 4.472430000000000017e-01 3.962390000000000079e-01 -1.538734000000000046e+00 6.343020000000000325e-01 -4.089979999999999727e-01 5.746670000000000389e-01 -1.440879999999999939e+00 -1.357774999999999954e+00 6.255220000000000224e-01 4.916499999999999759e-01 -1.541029999999999900e-01 6.281010000000000204e-01 -7.664130000000000109e-01 4.336619999999999919e-01 3.833170000000000188e-01 8.162340000000000151e-01 4.293980000000000019e-01 1.786820000000000075e-01 -3.499789999999999845e-01 -1.859000000000000097e-01 1.019493999999999900e+00 -3.983129999999999726e-01 -7.313190000000000524e-01 5.129340000000000011e-01 -9.786979999999999569e-01 -2.682760000000000145e-01 5.274729999999999697e-01 -1.386975999999999987e+00 5.217460000000000431e-01 -5.463989999999999680e-01 -5.781770000000000520e-01 -8.858369999999999855e-01 -6.929899999999999949e-02 -5.585679999999999534e-01 5.467020000000000213e-01 7.091600000000000681e-02 -3.984200000000000241e-02 -7.373509999999999787e-01 -9.271400000000000474e-02 -1.592850000000000099e-01 2.740349999999999731e-01 -1.284785999999999984e+00 2.036239999999999994e-01 8.452370000000000161e-01 -1.232588999999999935e+00 1.886720000000000064e-01 3.463379999999999792e-01 4.438599999999999768e-01 5.260719999999999841e-01 8.381800000000000361e-02 -2.331330000000000069e-01 1.389763000000000082e+00 8.730630000000000335e-01 -7.940979999999999706e-01 2.488299999999999887e-02 6.601939999999999475e-01 -1.302710000000000035e+00 -7.263000000000000358e-03 1.461659999999999904e-01 -2.125920000000000032e-01 6.096230000000000260e-01 -6.326800000000000201e-01 -5.554999999999999938e-01 4.616239999999999788e-01 -1.312389999999999946e-01 -1.046940999999999899e+00 7.507730000000000237e-01 -4.481660000000000088e-01 2.317579999999999918e-01 -8.990780000000000438e-01 5.223759999999999515e-01 6.738979999999999970e-01 4.065989999999999882e-01 6.562970000000000192e-01 7.226759999999999851e-01 4.571959999999999913e-01 -1.639170000000000071e-01 7.167149999999999910e-01 4.871639999999999859e-01 -1.578180000000000138e-01 1.394749999999999879e-01
2.322660000000000002e-01 3.690780000000000172e-01 1.043304999999999927e+00 -2.831409999999999760e-01 -3.064890000000000114e-01 -6.340000000000000149e-04 6.865959999999999841e-01 -3.018200000000000049e-02 6.516889999999999628e-01 -2.022844000000000086e+00 1.643040000000000056e-01 -1.943400000000000127e-01 3.831160000000000121e-01 -2.016890000000000072e-01 -5.209199999999999942e-02 -4.574309999999999765e-01 -1.992599999999999927e-01 -1.978810000000000013e-01 -8.147400000000000475e-02 1.763560000000000128e-01 6.333659999999999846e-01 -1.463109999999999966e-01 -2.340440000000000020e-01 1.032021999999999995e+00 -1.216952999999999951e+00 -1.170916000000000068e+00 8.796190000000000397e-01 -3.727509999999999990e-01 7.189179999999999460e-01 -3.437149999999999928e-01 -1.370079000000000047e+00 6.111370000000000413e-01 -6.406000000000000583e-02 -5.702009999999999579e-01 1.128687999999999914e+00 1.491306999999999938e+00 6.634419999999999762e-01 -3.606240000000000001e-01 -5.972260000000000346e-01 -4.896610000000000129e-01 1.106997000000000009e+00 -4.873569999999999847e-01 -2.196790000000000131e-01 -3.342029999999999723e-01 3.890790000000000082e-01 -2.732499999999999860e-02 1.676407999999999898e+00 -6.136340000000000128e-01 9.489999999999999738e-04 -8.556099999999999817e-02 -9.802199999999999802e-02 -1.934299999999999908e-01 6.590080000000000382e-01 2.579110000000000014e-01 5.941099999999999853e-02 -7.423260000000000414e-01 -5.262000000000000184e-03 4.581999999999999962e-02 1.118131999999999904e+00 2.543210000000000193e-01 -2.102390000000000092e-01 -1.853150000000000075e-01 -4.351100000000000106e-02 -1.169000000000000074e-02 -1.231209999999999916e+00 2.161679999999999990e-01 -8.987499999999999656e-02 2.981240000000000001e-01 -1.350611999999999924e+00 6.885670000000000401e-01 -4.696310000000000207e-01 -1.471069999999999878e-01 4.448679999999999857e-01 2.926830000000000265e-01 -2.923270000000000035e-01 1.111749999999999960e-01 -7.442509999999999959e-01 -1.254272000000000054e+00 8.627759999999999874e-01 -9.304740000000000233e-01 -5.574590000000000378e-01 1.498148999999999953e+00 3.112500000000000266e-01 9.079500000000000348e-01 1.737964999999999982e+00 -1.446833999999999953e+00 -4.595920000000000005e-01 3.479829999999999868e-01 4.192799999999999999e-02 -9.976319999999999633e-01
3.756369999999999987e-01 3.105060000000000042e-01 1.338740999999999959e+00 1.397669999999999968e+00 1.636676000000000020e+00 -7.465880000000000294e-01 9.426199999999999857e-02 -6.713360000000000438e-01 -5.233069999999999666e-01 8.152679999999999927e-01 1.177883999999999931e+00 -8.773079999999999767e-01 2.009809999999999930e-01 -7.790439999999999587e-01 -8.753269999999999662e-01 1.802300000000000013e-01 3.402830000000000021e-01 -1.707692999999999905e+00 7.941299999999999748e-02 -2.334789999999999921e-01 -1.360659999999999981e+00 2.219450000000000034e-01 -4.026919999999999944e-01 -6.629410000000000025e-01 -5.859400000000000025e-02 1.105941999999999981e+00 4.181549999999999989e-01 2.713309999999999889e-01 2.438813999999999815e+00 1.618709999999999871e-01 -7.592360000000000220e-01 7.215439999999999632e-01 -1.473694999999999977e+00 -1.201829000000000036e+00 4.496640000000000081e-01 -6.521080000000000210e-01 -1.296135000000000037e+00 -3.662360000000000060e-01 1.319218000000000002e+00 -8.434789999999999788e-01 2.836480000000000112e-01 1.236949999999999994e-01 1.757900000000000018e-01 -7.115700000000000358e-01 -2.938439999999999941e-01 4.826559999999999739e-01 4.003829999999999889e-01 2.402699999999999975e-02 -8.808199999999999363e-02 -1.193424000000000040e+00 1.258920000000000039e+00 -8.129830000000000112e-01 -7.846769999999999579e-01 5.509269999999999445e-01 -3.007150000000000101e-01 1.397180000000000089e-01 9.251019999999999799e-01 1.752296000000000076e+00 -5.361770000000000147e-01 1.109243999999999897e+00 -4.594239999999999990e-01 -1.358994000000000035e+00 6.778039999999999621e-01 7.247369999999999646e-01 -4.196650000000000102e-01 -1.245643999999999973e+00 -3.188329999999999775e-01 -5.338319999999999732e-01 -4.649369999999999892e-01 5.107209999999999805e-01 -1.840509999999999924e-01 -1.921799999999999897e-01 -1.185467999999999966e+00 -2.367506999999999806e+00 1.035284000000000093e+00 3.046400000000000219e-01 3.854239999999999888e-01 3.019189999999999929e-01 -4.261309999999999820e-01 -1.922109999999999930e-01 3.357249999999999956e-01 8.909999999999999518e-03 -2.394259999999999999e-01 4.358200000000000268e-02 -2.475849999999999995e-01 6.549989999999999979e-01 1.085973999999999995e+00 4.020079999999999765e-01 9.288370000000000237e-01 3.660439999999999805e-01