1.561649999999999983e+00 1.047509999999999941e+00 1.200990000000000002e+01 -7.545199999999999685e-01 5.052920000000000300e+00 1.131010000000000026e+01 5.979059999999999597e+00 1.081620000000000026e+00 1.189209999999999923e+01 3.738729999999999887e+00 4.712810000000000166e+00 1.213630000000000031e+01 5.228300000000000169e-01 3.394730000000000025e+00 1.539029999999999987e+01 -1.936849999999999961e+00 6.635139999999999816e+00 1.571390000000000065e+01 5.336240000000000094e+00 2.731030000000000069e+00 1.589780000000000015e+01 3.326299999999999812e+00 7.438329999999999664e+00 1.632019999999999982e+01 3.839690000000000047e+00 7.214520000000000266e+00 1.099910000000000032e+01 5.631170000000000009e+00 3.493370000000000086e+00 1.066789999999999949e+01 3.816640000000000033e+00 1.571200000000000097e-01 1.078870000000000040e+01 1.722800000000000109e+00 3.540630000000000166e+00 1.115279999999999916e+01 2.431200000000000028e+00 1.626810000000000089e+00 1.442600000000000016e+01 -4.709999999999999777e-03 5.242350000000000065e+00 1.378209999999999980e+01 7.085930000000000284e+00 1.236669999999999936e+00 1.435539999999999949e+01 4.745239999999999903e+00 4.651019999999999932e+00 1.456630000000000003e+01 -6.113600000000000145e-01 2.246430000000000149e+00 1.754540000000000077e+01 -3.374159999999999826e+00 6.188679999999999737e+00 1.790540000000000020e+01 6.099549999999999805e+00 8.636800000000000033e-01 1.822909999999999897e+01 1.437950000000000061e+00 5.531240000000000379e+00 1.678760000000000119e+01
2.841369999999999951e+00 1.344240000000000101e+00 1.200960000000000072e+01 1.006469999999999976e+00 5.142079999999999984e+00 1.131370000000000076e+01 6.872469999999999857e+00 1.448809999999999931e+00 1.111299999999999955e+01 -2.520090000000000163e+00 5.641639999999999766e+00 1.176449999999999996e+01 4.712209999999999788e+00 2.271659999999999791e+00 1.553020000000000067e+01 -1.071799999999999975e-01 4.791439999999999699e+00 1.632069999999999865e+01 7.176759999999999806e+00 1.348610000000000086e+00 1.850230000000000175e+01 3.583730000000000082e+00 7.043580000000000396e+00 1.432210000000000072e+01 1.241020000000000012e+00 4.793499999999999983e-01 1.024290000000000056e+01 -9.133900000000000352e-01 3.885650000000000048e+00 1.012599999999999945e+01 4.821550000000000225e+00 1.510400000000000076e-01 1.000430000000000064e+01 3.515750000000000153e+00 3.916310000000000180e+00 1.097979999999999912e+01 2.528579999999999828e+00 1.084230000000000027e+00 1.434239999999999959e+01 1.219449999999999923e+00 5.883320000000000327e+00 1.362379999999999924e+01 -7.433999999999999497e-01 1.892260000000000053e+00 1.376919999999999966e+01 -2.804040000000000088e+00 4.997609999999999886e+00 1.479390000000000072e+01 7.362999999999999545e-01 7.252340000000000231e+00 1.786420000000000030e+01 -3.589269999999999960e+00 7.224759999999999849e+00 1.707199999999999918e+01 -1.617809999999999970e+00 3.985829999999999984e+00 1.876630000000000109e+01 2.809300000000000130e-01 5.146119999999999806e+00 1.932570000000000121e+01
2.732240000000000002e+00 9.154400000000000315e-01 1.195979999999999954e+01 2.547499999999999765e-01 4.649339999999999584e+00 1.143979999999999997e+01 6.742740000000000400e+00 9.791600000000000303e-01 1.156850000000000023e+01 5.108380000000000365e+00 4.445680000000000298e+00 1.173620000000000019e+01 -3.283099999999999907e-01 2.740130000000000177e+00 1.474150000000000027e+01 -1.409659999999999913e+00 5.859609999999999985e+00 1.540779999999999994e+01 5.040890000000000093e+00 2.035530000000000062e+00 1.548429999999999929e+01 -1.945600000000000107e-01 4.425539999999999807e+00 1.953630000000000067e+01 -3.465139999999999887e+00 6.764840000000000408e+00 1.080180000000000007e+01 -1.462550000000000017e+00 3.218189999999999884e+00 1.019710000000000072e+01 4.743310000000000137e+00 1.476699999999999957e-01 1.030710000000000015e+01 2.919309999999999850e+00 3.344580000000000108e+00 1.049269999999999925e+01 2.559439999999999937e+00 1.579730000000000079e+00 1.443679999999999986e+01 7.592900000000000205e-01 5.423300000000000232e+00 1.384820000000000029e+01 7.184300000000000352e+00 8.138800000000000479e-01 1.408600000000000030e+01 5.057540000000000369e+00 4.617650000000000254e+00 1.434120000000000061e+01 -1.692479999999999984e+00 3.261420000000000208e+00 1.682100000000000151e+01 -5.390999999999999959e-02 6.808889999999999887e+00 1.745240000000000080e+01 2.641189999999999927e+00 5.318760000000000154e+00 1.907910000000000039e+01 3.293639999999999901e+00 3.554269999999999818e+00 1.760170000000000101e+01
2.418899999999999828e+00 1.247910000000000075e+00 1.189439999999999920e+01 -3.373000000000000304e-02 5.412510000000000154e+00 1.217670000000000030e+01 6.904449999999999754e+00 1.761570000000000080e+00 1.146610000000000085e+01 4.504120000000000346e+00 5.175469999999999793e+00 1.200140000000000029e+01 6.282589999999999897e+00 3.194500000000000117e+00 1.704530000000000101e+01 -2.307949999999999946e+00 5.831559999999999633e+00 1.495289999999999964e+01 4.405269999999999797e+00 1.006059999999999954e+00 1.459600000000000009e+01 2.933710000000000040e+00 6.788249999999999673e+00 1.714260000000000161e+01 2.483299999999999952e-01 1.166299999999999976e-01 1.072869999999999990e+01 -1.502410000000000023e+00 4.141910000000000203e+00 1.076069999999999993e+01 4.497329999999999828e+00 3.671800000000000064e-01 1.064690000000000047e+01 2.109579999999999789e+00 3.760780000000000012e+00 1.108670000000000044e+01 1.782739999999999991e+00 1.456250000000000044e+00 1.479519999999999946e+01 6.498899999999999677e-01 5.722430000000000128e+00 1.485309999999999953e+01 6.880880000000000329e+00 1.804880000000000040e+00 1.383189999999999920e+01 3.998730000000000118e+00 4.396080000000000432e+00 1.440070000000000050e+01 2.409300000000000053e-01 2.237699999999999800e+00 1.752860000000000085e+01 -2.640849999999999920e+00 5.705160000000000231e+00 1.761129999999999995e+01 4.613629999999999676e+00 1.191070000000000073e+00 1.729029999999999845e+01 1.934739999999999904e+00 3.747469999999999857e+00 1.679870000000000019e+01
2.157360000000000166e+00 1.614810000000000079e+00 1.156610000000000049e+01 1.025500000000000023e-01 5.652449999999999974e+00 1.175409999999999933e+01 6.785020000000000273e+00 1.582549999999999901e+00 1.176570000000000071e+01 4.337150000000000283e+00 5.123960000000000292e+00 1.122540000000000049e+01 -2.654000000000000248e-01 2.380700000000000038e+00 1.556199999999999939e+01 -2.091219999999999857e+00 5.998820000000000263e+00 1.534859999999999935e+01 4.036170000000000258e+00 2.423270000000000035e+00 1.575210000000000043e+01 2.527499999999999858e+00 6.244939999999999714e+00 1.598409999999999975e+01 9.736000000000000210e-02 2.445700000000000096e-01 1.080819999999999936e+01 -2.058390000000000164e+00 4.147439999999999571e+00 1.119280000000000008e+01 4.436709999999999710e+00 7.147799999999999709e-01 1.083900000000000041e+01 2.045350000000000001e+00 4.106569999999999609e+00 1.051360000000000028e+01 2.093490000000000073e+00 1.152979999999999894e+00 1.445480000000000054e+01 4.470899999999999874e-01 4.803469999999999906e+00 1.471419999999999995e+01 6.208020000000000316e+00 1.134889999999999954e+00 1.456320000000000014e+01 4.085510000000000197e+00 4.608970000000000233e+00 1.447020000000000017e+01 7.138729999999999798e+00 1.945009999999999906e+00 1.807499999999999929e+01 -1.566869999999999985e+00 6.567160000000000331e+00 1.765660000000000096e+01 5.173040000000000305e+00 2.142939999999999845e+00 1.824940000000000140e+01 2.100719999999999921e+00 5.096339999999999648e+00 1.815899999999999892e+01
2.245179999999999954e+00 1.159229999999999983e+00 1.143130000000000024e+01 1.754799999999999971e-01 4.853889999999999816e+00 1.119829999999999970e+01 6.963250000000000384e+00 2.096210000000000129e+00 1.172199999999999953e+01 3.532560000000000144e+00 5.305659999999999599e+00 1.233159999999999989e+01 -1.110489999999999977e+00 2.442569999999999908e+00 1.670129999999999981e+01 -2.013459999999999805e+00 5.774980000000000224e+00 1.515070000000000050e+01 5.277099999999999902e+00 4.324500000000000011e-01 1.504850000000000065e+01 3.599359999999999893e+00 5.036880000000000024e+00 1.717760000000000176e+01 -8.967999999999999583e-02 2.957400000000000029e-01 1.070289999999999964e+01 -2.364040000000000141e+00 4.409239999999999604e+00 1.082450000000000045e+01 4.352940000000000254e+00 1.338100000000000123e-01 1.047560000000000002e+01 2.235160000000000036e+00 3.663580000000000059e+00 1.039179999999999993e+01 2.654420000000000002e+00 1.340570000000000039e+00 1.403919999999999924e+01 1.903499999999999914e-01 4.754749999999999588e+00 1.392629999999999946e+01 5.953560000000000407e+00 3.014409999999999812e+00 1.429759999999999920e+01 3.853610000000000202e+00 6.426420000000000243e+00 1.483999999999999986e+01 1.173829999999999929e+00 4.166859999999999786e+00 1.870469999999999899e+01 -2.519579999999999931e+00 5.701260000000000439e+00 1.763500000000000156e+01 5.833809999999999718e+00 3.856999999999999873e-01 1.764649999999999963e+01 2.725649999999999906e+00 2.787490000000000023e+00 1.759609999999999985e+01
2.374239999999999906e+00 1.238299999999999956e+00 1.099390000000000001e+01 5.476199999999999957e-01 4.816860000000000142e+00 1.214339999999999975e+01 6.253049999999999997e+00 1.072279999999999900e+00 1.176870000000000083e+01 4.558950000000000280e+00 4.774639999999999773e+00 1.183610000000000007e+01 -1.549649999999999972e+00 2.745210000000000150e+00 1.702740000000000009e+01 -2.017259999999999831e+00 6.252830000000000332e+00 1.487459999999999916e+01 4.115680000000000227e+00 2.335179999999999811e+00 1.572359999999999935e+01 2.894579999999999931e+00 6.906939999999999635e+00 1.682130000000000081e+01 -2.826000000000000040e-02 8.400000000000000522e-02 1.042130000000000045e+01 6.361830000000000318e+00 3.507340000000000124e+00 1.057620000000000005e+01 -1.003200000000000064e-01 6.770900000000000141e+00 1.036890000000000001e+01 2.441769999999999996e+00 3.896599999999999842e+00 1.040600000000000058e+01 2.164870000000000072e+00 1.655960000000000099e+00 1.405959999999999965e+01 2.821500000000000119e-01 5.170689999999999564e+00 1.466910000000000025e+01 6.757780000000000342e+00 1.586260000000000003e+00 1.413909999999999911e+01 4.394079999999999764e+00 5.105209999999999582e+00 1.448429999999999929e+01 8.701600000000000446e-01 2.412669999999999870e+00 1.835829999999999984e+01 -1.520990000000000064e+00 5.808200000000000252e+00 1.733180000000000121e+01 5.234680000000000000e+00 8.474099999999999966e-01 1.845870000000000033e+01 1.802799999999999958e+00 4.088020000000000209e+00 1.718509999999999849e+01
2.469100000000000072e+00 1.288769999999999971e+00 1.127870000000000061e+01 1.272300000000000098e-01 4.940140000000000420e+00 1.217389999999999972e+01 6.831190000000000317e+00 1.440239999999999965e+00 1.136800000000000033e+01 4.699539999999999829e+00 5.115079999999999849e+00 1.167989999999999995e+01 -8.325000000000000178e-01 2.294639999999999791e+00 1.697889999999999944e+01 -2.317079999999999806e+00 6.369290000000000340e+00 1.597209999999999930e+01 4.039450000000000429e+00 2.307090000000000085e+00 1.514119999999999955e+01 1.920379999999999976e+00 6.294150000000000134e+00 1.550239999999999974e+01 2.286900000000000044e-01 1.939800000000000135e-01 1.049200000000000088e+01 -1.809579999999999966e+00 3.937730000000000175e+00 1.065010000000000012e+01 4.640179999999999971e+00 1.481000000000000025e-02 1.096950000000000003e+01 2.357860000000000067e+00 3.934439999999999937e+00 1.081889999999999930e+01 1.610219999999999985e+00 1.181710000000000038e+00 1.447830000000000084e+01 -2.038600000000000134e-01 4.951089999999999769e+00 1.492309999999999981e+01 6.092970000000000219e+00 9.408800000000000496e-01 1.386260000000000048e+01 4.309910000000000352e+00 4.874480000000000146e+00 1.440310000000000024e+01 1.208569999999999922e+00 3.515730000000000022e+00 1.834680000000000177e+01 -1.801949999999999941e+00 5.145279999999999632e+00 1.790159999999999840e+01 5.491489999999999760e+00 9.110899999999999554e-01 1.720279999999999987e+01 2.315179999999999794e+00 6.266980000000000217e+00 1.800029999999999930e+01
2.350359999999999783e+00 1.536939999999999973e+00 1.187129999999999974e+01 1.567199999999999982e-01 4.936200000000000365e+00 1.179509999999999970e+01 6.530190000000000161e+00 1.312070000000000070e+00 1.121219999999999928e+01 4.316740000000000244e+00 5.018819999999999837e+00 1.154250000000000043e+01 6.257500000000000284e-01 2.192769999999999886e+00 1.515370000000000061e+01 4.466230000000000366e+00 6.129509999999999792e+00 1.879489999999999839e+01 4.067820000000000213e+00 3.229830000000000201e+00 1.572020000000000017e+01 2.165099999999999802e+00 6.493050000000000210e+00 1.499089999999999989e+01 6.841599999999999904e-01 1.968799999999999994e-01 1.039509999999999934e+01 -1.700779999999999959e+00 3.860110000000000152e+00 1.048390000000000022e+01 4.499189999999999579e+00 1.214999999999999934e-02 1.072850000000000037e+01 2.198819999999999997e+00 4.057859999999999800e+00 1.049329999999999963e+01 3.136530000000000040e+00 1.158120000000000038e+00 1.426609999999999978e+01 -1.718099999999999905e-01 4.937319999999999709e+00 1.460249999999999915e+01 6.590749999999999886e+00 1.270969999999999933e+00 1.400339999999999918e+01 4.844330000000000247e+00 5.325499999999999901e+00 1.407520000000000060e+01 2.031029999999999891e+00 7.341470000000000162e+00 1.792340000000000089e+01 -4.969600000000000128e-01 1.796180000000000110e+00 1.776490000000000080e+01 3.654910000000000103e+00 1.959929999999999950e+00 1.840869999999999962e+01 2.001290000000000013e+00 3.545869999999999855e+00 1.746679999999999922e+01
6.888639999999999652e+00 3.354649999999999910e+00 8.643919999999999604e+00 2.568599999999999772e-01 1.988199999999999967e-01 1.143740000000000023e+01 4.826380000000000337e+00 1.675450000000000106e+00 1.631589999999999918e+01 3.873209999999999820e+00 5.653139999999999610e+00 8.683600000000000207e+00 5.516189999999999927e+00 3.532680000000000042e+00 1.256479999999999997e+01 7.884619999999999962e+00 3.699510000000000076e+00 1.866059999999999874e+01 1.934409999999999963e+00 9.080000000000000293e-01 8.457799999999999763e-01 4.817289999999999850e+00 5.367549999999999599e+00 1.609080000000000155e+01 1.530210000000000070e+00 1.513619999999999965e+00 7.341529999999999667e+00 5.922760000000000247e+00 5.215659999999999741e+00 7.151869999999999727e+00 5.348629999999999995e+00 2.055140000000000189e+00 1.035820000000000007e+01 1.871229999999999949e+00 4.589150000000000063e+00 1.047230000000000061e+01 5.347050000000000303e+00 5.970410000000000217e+00 1.120780000000000065e+01 6.558799999999999741e+00 1.485090000000000021e+00 1.393469999999999942e+01 8.032040000000000290e+00 5.509610000000000340e+00 1.668209999999999837e+01 3.723219999999999974e+00 3.827760000000000051e+00 1.412850000000000072e+01 7.967590000000000394e+00 5.781810000000000116e+00 1.377400000000000013e-01 5.103460000000000107e+00 3.389100000000000001e+00 1.844920000000000115e+01 2.457580000000000098e+00 1.392800000000000038e+00 1.708909999999999840e+01 3.228330000000000144e+00 4.342060000000000031e+00 5.157800000000000162e-01
2.403030000000000221e+00 1.396460000000000035e+00 1.145199999999999996e+01 -7.527999999999999969e-02 5.033579999999999721e+00 1.206400000000000006e+01 6.814339999999999620e+00 1.118689999999999962e+00 1.077769999999999939e+01 4.302559999999999718e+00 4.806750000000000078e+00 1.120720000000000027e+01 -3.093600000000000239e-01 2.474950000000000205e+00 1.622650000000000148e+01 -2.140159999999999840e+00 6.234149999999999636e+00 1.542350000000000065e+01 4.201769999999999783e+00 2.550510000000000055e+00 1.545240000000000080e+01 2.406730000000000036e+00 6.456400000000000361e+00 1.648199999999999932e+01 -3.926320000000000032e+00 7.334950000000000081e+00 1.076660000000000039e+01 -1.913859999999999895e+00 3.666349999999999998e+00 1.050459999999999994e+01 4.512080000000000091e+00 6.729999999999999871e-03 1.096519999999999939e+01 1.899899999999999922e+00 3.853650000000000020e+00 1.083140000000000036e+01 1.900139999999999940e+00 1.432579999999999965e+00 1.459730000000000061e+01 8.794000000000000428e-02 4.927349999999999675e+00 1.468229999999999968e+01 6.401340000000000252e+00 1.219470000000000054e+00 1.464269999999999960e+01 4.050259999999999749e+00 5.096619999999999706e+00 1.414819999999999922e+01 -1.781579999999999941e+00 3.564400000000000013e+00 1.831279999999999930e+01 -2.517370000000000108e+00 6.592229999999999812e+00 1.786830000000000140e+01 4.833169999999999966e+00 2.972679999999999989e+00 1.806569999999999965e+01 1.818599999999999994e+00 4.658339999999999925e+00 1.813220000000000098e+01
1.521299999999999875e-01 5.181799999999999740e-01 1.144280000000000008e+01 6.283789999999999765e+00 3.398400000000000087e+00 1.094449999999999967e+01 4.721400000000000041e-01 6.947239999999999860e+00 1.142709999999999937e+01 2.198690000000000033e+00 3.292629999999999946e+00 1.164489999999999981e+01 2.837500000000000022e-01 4.938819999999999766e+00 1.763789999999999836e+01 6.550259999999999749e+00 4.586999999999999966e-01 1.900860000000000127e+01 5.046890000000000320e+00 4.971230000000000260e+00 1.599530000000000030e+01 7.296949999999999825e+00 4.705799999999999983e-01 1.523399999999999999e+01 2.620540000000000092e+00 5.704500000000000348e+00 1.075530000000000008e+01 3.992340000000000000e+00 2.203009999999999913e+00 9.869740000000000180e+00 -1.705580000000000096e+00 5.824440000000000062e+00 1.036359999999999992e+01 3.094700000000000228e-01 2.543289999999999829e+00 9.815899999999999181e+00 2.077119999999999855e+00 1.249980000000000091e+00 1.328260000000000041e+01 4.800320000000000142e+00 2.579199999999999826e-01 1.655839999999999890e+01 6.244909999999999961e+00 2.184130000000000127e+00 1.308309999999999995e+01 3.749579999999999913e+00 5.273649999999999949e+00 1.385880000000000045e+01 3.444399999999999906e+00 3.210789999999999811e+00 1.729100000000000037e+01 9.699699999999999989e-01 5.339199999999999502e-01 1.672960000000000136e+01 -1.417480000000000073e+00 3.214859999999999829e+00 1.684540000000000148e+01 2.460069999999999979e+00 4.350769999999999804e+00 1.890630000000000166e+01
3.748730000000000118e+00 1.187529999999999974e+00 1.101750000000000007e+01 1.171340000000000048e+00 4.600559999999999761e+00 1.225900000000000034e+01 7.539159999999999862e+00 1.134239999999999915e+00 1.188669999999999938e+01 -2.758869999999999933e+00 5.209069999999999645e+00 1.155330000000000013e+01 4.937800000000000189e+00 2.601329999999999920e+00 1.605730000000000146e+01 -1.546110000000000095e+00 7.551750000000000185e+00 1.546770000000000067e+01 -4.735400000000000165e-01 1.397459999999999924e+00 1.804060000000000130e+01 3.084090000000000220e+00 6.528690000000000104e+00 1.512090000000000067e+01 1.337830000000000075e+00 8.536000000000000532e-02 1.050089999999999968e+01 -8.297900000000000276e-01 3.626729999999999787e+00 1.077679999999999971e+01 1.443540000000000045e+00 7.076570000000000249e+00 1.066290000000000049e+01 3.159819999999999851e+00 3.976030000000000175e+00 1.081250000000000000e+01 3.818740000000000023e+00 1.978280000000000038e+00 1.395260000000000034e+01 9.986099999999999977e-01 5.386320000000000441e+00 1.475150000000000006e+01 -4.606799999999999784e-01 1.614889999999999937e+00 1.449690000000000012e+01 -2.704509999999999970e+00 5.459539999999999615e+00 1.418290000000000006e+01 4.530840000000000423e+00 6.249000000000000110e-01 1.742660000000000053e+01 -3.776930000000000121e+00 6.853799999999999670e+00 1.745420000000000016e+01 -1.152030000000000109e+00 3.669620000000000104e+00 1.681040000000000134e+01 -3.220000000000000206e-03 5.743240000000000123e+00 1.831599999999999895e+01
3.590609999999999857e+00 4.436899999999999733e-01 1.268999999999999950e+01 4.122690000000000410e+00 4.114359999999999573e+00 1.031729999999999947e+01 1.860460000000000003e+00 9.352300000000000058e-01 9.379680000000000462e+00 8.486560000000000770e+00 3.383010000000000073e+00 1.114750000000000085e+01 2.286280000000000090e+00 2.509110000000000174e+00 1.756569999999999965e+01 4.737940000000000040e+00 5.439429999999999765e+00 1.847299999999999898e+01 9.494099999999999540e+00 2.540700000000000180e+00 1.442719999999999914e+01 7.541940000000000310e+00 7.102500000000000480e-01 1.810450000000000159e+01 4.993210000000000370e+00 5.190249999999999808e+00 8.074310000000000542e+00 8.674870000000000303e+00 2.991890000000000160e+00 8.636490000000000222e+00 1.917939999999999978e+00 5.197549999999999670e+00 1.176060000000000016e+01 3.979200000000000070e+00 1.400190000000000046e+00 1.050070000000000014e+01 8.881099999999999994e+00 9.922100000000000364e-01 1.240119999999999933e+01 8.021140000000000825e+00 3.115340000000000220e+00 1.653369999999999962e+01 3.532459999999999933e+00 1.949610000000000065e+00 1.486909999999999954e+01 5.977199999999999847e+00 4.030230000000000423e+00 1.232840000000000025e+01 4.596479999999999677e+00 3.093480000000000008e+00 1.945550000000000068e+01 4.525890000000000413e+00 6.219799999999999773e-01 1.818140000000000001e+01 1.174539999999999917e+00 9.464099999999999735e-01 1.955160000000000053e+01 2.339389999999999858e+00 5.082160000000000011e+00 1.685559999999999903e+01
2.542139999999999844e+00 1.528690000000000104e+00 1.170930000000000071e+01 3.685499999999999887e-01 5.186119999999999841e+00 1.161599999999999966e+01 6.710180000000000256e+00 1.530140000000000056e+00 1.169110000000000049e+01 4.766429999999999723e+00 5.209299999999999820e+00 1.187219999999999942e+01 2.845599999999999796e-01 2.674980000000000135e+00 1.530770000000000053e+01 -2.569020000000000081e+00 5.452709999999999724e+00 1.760810000000000031e+01 4.170869999999999855e+00 2.497570000000000068e+00 1.538659999999999961e+01 2.386690000000000200e+00 5.956649999999999778e+00 1.547569999999999979e+01 7.897999999999999465e-02 2.008800000000000030e-01 1.086720000000000041e+01 -1.953680000000000083e+00 3.883669999999999956e+00 1.070860000000000056e+01 4.748960000000000292e+00 3.546799999999999953e-01 1.052549999999999919e+01 2.596960000000000157e+00 4.023329999999999629e+00 1.063030000000000008e+01 2.349619999999999820e+00 1.047379999999999978e+00 1.437410000000000032e+01 1.141999999999999960e-01 5.220500000000000362e+00 1.460110000000000063e+01 6.865280000000000271e+00 1.200139999999999985e+00 1.429959999999999987e+01 4.662550000000000416e+00 5.088199999999999612e+00 1.441569999999999929e+01 6.558060000000000223e+00 1.830400000000000083e-01 1.825860000000000127e+01 8.215999999999999692e-02 1.248490000000000100e+00 1.778259999999999863e+01 5.619939999999999714e+00 2.093589999999999840e+00 1.741939999999999955e+01 3.305349999999999788e+00 4.094430000000000014e+00 1.733180000000000121e+01
1.527249999999999996e+00 1.320089999999999986e+00 1.231400000000000006e+01 -1.292799999999999949e+00 4.997230000000000061e+00 1.190310000000000024e+01 5.259699999999999598e+00 7.971300000000000052e-01 1.082559999999999967e+01 2.939929999999999932e+00 5.083849999999999980e+00 1.189300000000000068e+01 -4.811199999999999921e-01 2.324250000000000149e+00 1.547390000000000043e+01 -1.443380000000000107e+00 6.715279999999999916e+00 1.596659999999999968e+01 3.941429999999999989e+00 4.387489999999999668e+00 1.849840000000000018e+01 2.111870000000000136e+00 6.548700000000000188e+00 1.494800000000000040e+01 2.953829999999999956e+00 7.242840000000000167e+00 1.040690000000000026e+01 4.931610000000000049e+00 3.544179999999999886e+00 1.053560000000000052e+01 -1.446509999999999962e+00 7.424389999999999823e+00 1.096940000000000026e+01 9.745800000000000018e-01 3.525729999999999809e+00 1.090530000000000044e+01 2.174469999999999903e+00 1.613650000000000029e+00 1.483210000000000051e+01 1.700500000000000067e-01 5.071909999999999918e+00 1.402839999999999954e+01 5.899379999999999846e+00 1.263630000000000031e+00 1.356140000000000079e+01 4.128470000000000084e+00 4.827029999999999710e+00 1.425740000000000052e+01 7.591999999999999860e-01 2.492459999999999898e+00 1.809900000000000020e+01 1.018489999999999895e+00 6.671529999999999738e+00 1.716619999999999990e+01 -1.321809999999999929e+00 3.380930000000000213e+00 1.758780000000000143e+01 -3.744369999999999976e+00 6.949080000000000368e+00 1.720959999999999823e+01
2.087530000000000108e+00 1.506010000000000071e+00 1.122250000000000014e+01 -1.451000000000000033e-02 5.211330000000000240e+00 1.171860000000000035e+01 5.937199999999999811e+00 1.783570000000000100e+00 1.156259999999999977e+01 4.099630000000000329e+00 5.485759999999999970e+00 1.199740000000000073e+01 -1.665200000000000014e-01 1.936900000000000066e+00 1.600529999999999831e+01 -2.048350000000000115e+00 6.047719999999999985e+00 1.594570000000000043e+01 3.736349999999999838e+00 2.279300000000000104e+00 1.548390000000000022e+01 2.070240000000000080e+00 5.862540000000000084e+00 1.661459999999999937e+01 -1.540199999999999902e-01 4.938799999999999857e-01 1.043260000000000076e+01 -2.359630000000000116e+00 4.329159999999999897e+00 1.054989999999999917e+01 4.139680000000000248e+00 1.994299999999999962e-01 1.008060000000000045e+01 2.189799999999999969e+00 4.404939999999999856e+00 1.044950000000000045e+01 1.669899999999999940e+00 1.100800000000000001e+00 1.396020000000000039e+01 -1.293300000000000005e-01 4.762159999999999727e+00 1.423000000000000043e+01 6.213930000000000398e+00 1.796950000000000047e+00 1.404509999999999970e+01 3.868970000000000020e+00 4.958230000000000359e+00 1.477960000000000029e+01 7.962570000000000370e+00 9.121999999999999553e-02 1.786309999999999931e+01 3.989399999999999835e+00 2.742800000000000238e-01 1.760069999999999979e+01 4.782449999999999868e+00 9.299399999999999888e-01 1.971549999999999869e+01 2.295840000000000103e+00 3.058330000000000215e+00 1.767360000000000042e+01
2.057069999999999954e+00 1.259940000000000060e+00 1.141039999999999921e+01 2.920000000000000026e-02 5.240059999999999718e+00 1.112470000000000070e+01 6.659650000000000070e+00 1.654870000000000063e+00 1.221310000000000073e+01 4.341260000000000119e+00 4.646840000000000082e+00 1.119079999999999941e+01 3.091499999999999804e-01 2.512350000000000083e+00 1.591559999999999953e+01 -2.190049999999999830e+00 5.769370000000000331e+00 1.582659999999999911e+01 4.206599999999999895e+00 2.381349999999999856e+00 1.604019999999999868e+01 2.031000000000000139e+00 6.104770000000000252e+00 1.530949999999999989e+01 4.325300000000000367e+00 7.232409999999999783e+00 1.086149999999999949e+01 -2.109879999999999978e+00 3.930629999999999846e+00 1.029420000000000002e+01 4.433259999999999756e+00 3.556799999999999962e-01 1.109950000000000081e+01 2.035769999999999857e+00 3.645389999999999908e+00 1.035769999999999946e+01 1.931840000000000002e+00 1.135939999999999950e+00 1.453749999999999964e+01 6.629000000000000170e-02 4.911100000000000243e+00 1.442190000000000083e+01 6.714159999999999684e+00 1.245959999999999956e+00 1.487470000000000070e+01 4.251629999999999576e+00 4.791070000000000384e+00 1.445299999999999940e+01 2.837200000000000277e-01 2.119099999999999984e+00 1.832090000000000174e+01 5.400339999999999918e+00 5.314989999999999881e+00 1.841400000000000148e+01 4.832309999999999661e+00 3.415270000000000028e+00 1.836039999999999850e+01 1.784149999999999903e+00 6.459999999999999964e+00 1.762490000000000023e+01
2.930039999999999978e+00 3.132829999999999782e+00 1.092859999999999943e+01 1.023079999999999989e+00 6.099750000000000227e+00 1.117430000000000057e+01 -1.004990000000000050e+00 2.838000000000000078e+00 1.269560000000000066e+01 3.815960000000000019e+00 6.105399999999999716e-01 8.479720000000000368e+00 3.567450000000000010e+00 2.008399999999999963e+00 1.476980000000000004e+01 3.183739999999999792e+00 3.029290000000000038e+00 1.736899999999999977e+01 4.370800000000000018e+00 6.036209999999999631e+00 1.882120000000000104e+01 1.686360000000000081e+00 6.180039999999999978e+00 1.572279999999999944e+01 2.039960000000000218e+00 2.354620000000000157e+00 8.524340000000000472e+00 4.061500000000000110e-01 5.295910000000000117e+00 8.883760000000000545e+00 5.714760000000000062e+00 1.320000000000000062e+00 1.045710000000000051e+01 3.626770000000000049e+00 5.406509999999999927e+00 1.132760000000000034e+01 1.783330000000000082e+00 1.787009999999999987e+00 1.268560000000000088e+01 -5.865899999999999448e-01 5.357409999999999783e+00 1.324150000000000027e+01 6.155979999999999563e+00 1.202720000000000011e+00 1.487889999999999979e+01 4.069239999999999746e+00 4.804669999999999774e+00 1.524169999999999980e+01 3.402410000000000156e+00 4.960560000000000080e+00 2.036999999999999922e+00 1.543579999999999952e+00 5.529880000000000351e+00 1.811039999999999850e+01 2.927070000000000061e+00 6.510200000000000431e-01 1.657760000000000034e+01 3.519359999999999822e+00 3.708120000000000083e+00 2.756299999999999861e-01