-6.604878820999999789e+01
-6.543765670999999884e+01
-6.648568579999999884e+01
-6.678565475000000617e+01
-6.446071335999999974e+01
-6.627859363000000315e+01
-6.576967104999999947e+01
-6.566346273000000622e+01
-6.686073503999999446e+01
-6.530447202000000573e+01
-6.565850360000000308e+01
-6.722758521000000087e+01
-6.606044737999999938e+01
-6.544506191000000683e+01
-6.796908435000000281e+01
-6.625201017000000547e+01
-6.705597921999999755e+01
-6.426382162999999537e+01
-6.382716206999999997e+01
-6.729604335999999876e+01
-6.600791411000000153e+01
-6.504661810000000344e+01
-6.731428320999999926e+01
-6.653352551999999775e+01
-6.626456120999999655e+01
-6.548555880000000684e+01
-6.736102438000000348e+01
-6.594907598000000348e+01
-6.676680559999999787e+01
-6.847808781000000522e+01
-6.677471828999999559e+01
-6.448212766000000329e+01
-6.533461499000000572e+01
-6.740813998999999512e+01
-6.513985119999999540e+01
-6.603247620999999867e+01
-6.603986578999999324e+01
-6.721573134999999866e+01
-6.578408708999999988e+01
-6.572288652999999670e+01
