2.967339999999999978e-01 2.231410000000000060e-01 1.598809999999999953e-01 -1.913400000000000170e-02 -7.722689999999999833e-01 2.010899999999999910e-01 4.989919999999999911e-01 1.182109999999999966e-01 1.787849999999999995e-01 6.203039999999999665e-01 3.559329999999999994e-01 4.641560000000000130e-01 5.994099999999999984e-01 -2.495509999999999950e-01 4.047319999999999807e-01 3.602299999999999947e-01 -5.820130000000000026e-01 7.206999999999999865e-03 1.000150000000000067e-01 -1.854103999999999974e+00 1.780065000000000008e+00 6.587809999999999500e-01 -3.021412999999999904e+00 1.528078999999999965e+00 -3.181720000000000104e-01 -9.613299999999999623e-02 -4.428489999999999926e-01 7.190130000000000132e-01 -4.640899999999999886e-02 -1.996670000000000111e-01 -3.889059999999999739e-01 -2.342920000000000003e-01 -5.279869999999999841e-01 -9.223590000000000400e-01 -6.157399999999999679e-02 -9.506040000000000045e-01 1.294430000000000025e-01 -4.230360000000000231e-01 5.314250000000000362e-01 -6.615020000000000344e-01 1.294310999999999989e+00 -1.189560000000000062e-01 -4.742640000000000189e-01 1.279474999999999918e+00 -2.155997000000000163e+00 -7.704349999999999810e-01 2.376117999999999952e+00 -1.320168000000000008e+00 8.139849999999999586e-01 1.336122999999999950e+00 1.050076000000000009e+00 2.616499999999999937e-01 4.352269999999999750e-01 -1.119779999999999998e+00 -9.847939999999999472e-01 1.884470000000000034e-01 1.641320000000000001e-01 -5.189920000000000089e-01 -2.661919999999999842e-01 3.663790000000000102e-01
1.510669999999999957e+00 1.276445000000000052e+00 -1.853031000000000095e+00 1.058087000000000000e+00 -7.054000000000000548e-02 -1.050494000000000039e+00 -4.041950000000000265e-01 -2.281870000000000009e-01 3.914560000000000262e-01 -4.223919999999999897e-01 -1.050113000000000074e+00 1.855020000000000002e-01 2.595149999999999957e-01 -2.887330000000000174e-01 7.598100000000000687e-02 2.644770000000000176e-01 5.679700000000000026e-02 -8.841379999999999795e-01 -5.269000000000000072e-02 -1.558380000000000043e-01 -8.058710000000000040e-01 -2.149199999999999999e-01 -1.081623000000000001e+00 1.095765000000000100e+00 -5.095659999999999634e-01 -5.098150000000000182e-01 -3.743699999999999806e-01 -2.303620000000000112e-01 5.487720000000000375e-01 5.562000000000000104e-03 3.133299999999999974e-01 1.088650000000000034e-01 8.334979999999999611e-01 -7.803930000000000033e-01 -2.324080000000000035e-01 -3.142759999999999998e-01 2.068490000000000051e-01 1.648399999999999865e-02 1.685556000000000054e+00 -1.171729999999999994e-01 2.818209999999999882e-01 1.477052999999999949e+00 -7.455650000000000333e-01 1.300373000000000001e+00 -6.764400000000000412e-01 3.525860000000000105e-01 -2.337239999999999873e-01 -8.031660000000000466e-01 -7.393250000000000099e-01 4.928899999999999948e-02 -1.951110000000000066e-01 -3.638999999999999874e-03 2.444910000000000139e-01 6.989299999999999680e-02 -5.702009999999999579e-01 -6.695910000000000473e-01 2.812060000000000115e-01 8.249079999999999746e-01 6.372349999999999959e-01 8.554270000000000485e-01
-3.397390000000000132e-01 7.755429999999999824e-01 -8.318980000000000263e-01 1.327064000000000021e+00 -1.022839999999999999e-01 -3.170040000000000080e-01 1.589464999999999906e+00 2.028000000000000080e-01 -1.476339999999999875e-01 -3.812869999999999870e-01 -6.232699999999999907e-01 -5.446800000000000253e-02 1.896161999999999903e+00 1.167229999999999990e+00 1.797020000000000006e-01 -4.793769999999999976e-01 -2.853800000000000087e-02 4.393020000000000258e-01 3.035760000000000125e-01 2.662240000000000162e-01 8.534640000000000004e-01 2.489270000000000094e-01 2.280010000000000092e-01 -3.489269999999999872e-01 -2.236039999999999972e-01 9.537149999999999794e-01 -3.966270000000000073e-01 -8.434270000000000378e-01 -3.687399999999999706e-02 4.538189999999999724e-01 -6.607990000000000252e-01 -6.671080000000000343e-01 -3.401959999999999984e-01 -3.503569999999999740e-01 1.084839999999999971e-01 7.670749999999999513e-01 -8.223789999999999711e-01 -3.348399999999999987e-02 9.982399999999999607e-02 -3.101119999999999988e-01 -9.885260000000000158e-01 1.185419999999999946e-01 -1.122130000000000072e+00 -1.212552000000000074e+00 -4.147449999999999748e-01 4.205479999999999774e-01 1.012649999999999939e-01 -2.290439999999999976e-01 9.401099999999999735e-02 1.077489999999999976e-01 6.676830000000000265e-01 6.406499999999999695e-02 2.865210000000000257e-01 -4.343429999999999791e-01 1.764509999999999967e-01 -8.484150000000000302e-01 -8.547090000000000520e-01 -5.870570000000000510e-01 3.435179999999999900e-01 7.901829999999999687e-01
-7.816589999999999927e-01 9.606289999999999552e-01 8.404139999999999944e-01 2.401505999999999919e+00 6.266990000000000061e-01 1.582405999999999979e+00 -8.022179999999999866e-01 -1.223098999999999936e+00 -1.168230000000000102e+00 -6.470449999999999813e-01 -1.127253999999999978e+00 -2.794470000000000010e-01 7.753899999999999681e-02 -2.123099999999999987e-01 4.379589999999999872e-01 8.916000000000000314e-02 7.332149999999999501e-01 4.194160000000000110e-01 5.568629999999999969e-01 6.135709999999999775e-01 5.248950000000000005e-01 -9.368999999999999551e-02 -2.210350000000000092e-01 -8.891999999999999904e-02 4.192060000000000231e-01 1.887499999999999942e-02 -7.371469999999999967e-01 -2.166844000000000214e+00 3.630849999999999911e-01 -1.952342000000000022e+00 5.517060000000000297e-01 -1.147340000000000027e-01 -1.073699999999999932e-01 4.299769999999999981e-01 6.175100000000000033e-01 -6.251600000000000212e-02 4.339770000000000016e-01 -8.510060000000000402e-01 -1.495889999999999942e+00 -1.065074999999999994e+00 -8.629510000000000236e-01 -1.101434999999999942e+00 -3.971419999999999950e-01 -1.644909999999999983e-01 2.876644999999999897e+00 5.433750000000000524e-01 4.506950000000000123e-01 9.975100000000000633e-02 -3.608160000000000256e-01 1.298320000000000030e-01 1.091479999999999950e-01 2.103140000000000009e-01 -3.563990000000000213e-01 -2.720549999999999913e-01 5.915989999999999860e-01 4.960189999999999877e-01 1.500209999999999877e-01 9.266999999999999196e-03 1.231489999999999946e-01 2.246970000000000078e-01
2.320000000000000014e-03 6.192079999999999806e-01 9.611389999999999656e-01 3.235700000000000243e-01 -1.154939999999999994e-01 7.965529999999999555e-01 -4.679039999999999866e-01 6.003000000000000003e-02 6.738330000000000153e-01 -5.722460000000000324e-01 2.819240000000000079e-01 4.380189999999999917e-01 -3.060999999999999919e-03 -6.749399999999999844e-02 4.701060000000000239e-01 1.111010000000000053e-01 -2.339060000000000028e-01 -6.311999999999999555e-02 2.381890000000000118e-01 -8.329130000000000145e-01 1.092945000000000055e+00 -4.287920000000000065e-01 -1.113070000000000032e-01 4.390649999999999831e-01 -2.125080000000000024e-01 -4.259680000000000133e-01 -3.700570000000000248e-01 4.941169999999999729e-01 -2.558869999999999756e-01 -3.038120000000000265e-01 3.556480000000000197e-01 -4.896809999999999774e-01 -5.780119999999999703e-01 -9.526099999999999846e-02 -2.860210000000000252e-01 -1.407789999999999875e-01 -4.821409999999999862e-01 -2.672910000000000008e-01 -6.774689999999999879e-01 -8.100340000000000318e-01 6.938870000000000315e-01 -1.188277000000000028e+00 5.096039999999999459e-01 -2.935619999999999896e-01 -5.121839999999999726e-01 8.431170000000000053e-01 1.537944999999999895e+00 -9.340720000000000134e-01 8.431613000000000469e+00 -1.315201000000000064e+00 -5.962450000000000250e-01 -7.469399999999999651e-02 2.530540000000000012e-01 3.152789999999999759e-01 -8.412948999999999344e+00 1.269992999999999927e+00 4.835969999999999991e-01 2.503110000000000057e-01 -2.131699999999999914e-02 -3.065080000000000027e-01
7.550400000000000167e-02 2.714469999999999938e-01 7.938920000000000421e-01 -9.405000000000000027e-01 -2.295439999999999980e-01 1.077263000000000082e+00 -5.218180000000000041e-01 -3.620160000000000045e-01 4.441379999999999773e-01 4.541240000000000276e-01 -2.121609999999999885e-01 1.703689999999999927e-01 1.366749999999999909e-01 1.678530000000000022e-01 2.582479999999999776e-01 -3.656800000000000328e-02 4.931440000000000268e-01 -9.199190000000000422e-01 -4.380569999999999742e-01 -1.235139999999999988e-01 -3.795859999999999790e-01 8.139370000000000216e-01 1.741590999999999889e+00 -2.539199999999999791e-01 -7.784739999999999993e-01 2.555970000000000186e-01 5.812500000000000305e-02 -2.441570000000000129e-01 -1.002920000000000061e-01 -5.899029999999999552e-01 1.099185999999999996e+00 1.427715000000000067e+00 -8.488560000000000549e-01 6.360139999999999683e-01 -4.512450000000000072e-01 -1.806089999999999918e-01 -4.808099999999999874e-02 -5.891349999999999643e-01 6.449669999999999570e-01 5.661640000000000006e-01 5.315379999999999550e-01 5.467729999999999535e-01 9.285100000000000298e-02 -6.859640000000000182e-01 -4.586720000000000241e-01 1.184069999999999984e-01 -5.805199999999999944e-02 -3.814069999999999960e-01 -6.398420000000000218e-01 -2.867930000000000201e-01 -3.003499999999999920e-02 -5.199070000000000080e-01 -4.227339999999999987e-01 1.798260000000000136e-01 1.831899999999999917e-01 -3.774350000000000205e-01 -2.219460000000000044e-01 -8.647000000000000172e-03 -9.900020000000000486e-01 9.125099999999999878e-02
-1.744412999999999991e+00 1.135580000000000034e+00 1.307963999999999904e+00 -4.175349999999999895e-01 -3.127940000000000165e-01 -2.315200000000000036e-01 2.500919999999999810e-01 1.933630000000000071e-01 -1.425297999999999954e+00 2.328200000000000061e-02 6.384859999999999980e-01 6.578900000000000026e-02 5.002100000000000296e-02 1.098500999999999950e+00 6.303109999999999546e-01 -1.768019999999999869e-01 7.253270000000000550e-01 -7.977599999999999969e-02 2.117809999999999970e-01 3.110479999999999912e-01 2.029350000000000043e-01 1.391979999999999884e-01 -6.811660000000000492e-01 -2.397890000000000021e-01 -1.873950000000000060e-01 -1.920350000000000112e-01 6.046179999999999888e-01 6.651040000000000285e-01 -3.709680000000000200e-01 1.213130000000000042e-01 1.815604999999999913e+00 -4.531549999999999745e-01 -2.830449999999999910e-01 -4.041060000000000207e-01 -3.668549999999999867e-01 2.984569999999999723e-01 -1.630739999999999967e-01 -6.343339999999999534e-01 -5.886540000000000106e-01 4.527809999999999890e-01 -4.766329999999999734e-01 -5.923509999999999609e-01 -3.002560000000000229e-01 9.837400000000000311e-02 1.724310999999999927e+00 -4.866920000000000135e-01 -4.105960000000000165e-01 -6.006749999999999590e-01 -7.214829999999999854e-01 -4.659449999999999981e-01 1.914009999999999878e-01 -9.201199999999999657e-02 -8.819240000000000412e-01 5.594470000000000276e-01 -2.686450000000000227e-01 1.086181999999999981e+00 -9.945540000000000491e-01 1.354551000000000061e+00 -4.045499999999999791e-02 -6.708849999999999536e-01
-3.892410000000000037e-01 6.068200000000000260e-01 8.485780000000000545e-01 4.937159999999999882e-01 9.431200000000000694e-02 6.914740000000000331e-01 1.638489999999999946e-01 -2.830440000000000178e-01 6.169580000000000064e-01 -2.929760000000000142e-01 -1.265759999999999941e-01 4.696850000000000191e-01 4.753220000000000223e-01 9.227370000000000294e-01 2.627920000000000256e-01 -7.568249999999999700e-01 1.031215999999999910e+00 -1.689653000000000072e+00 -1.858039999999999969e-01 -2.665969999999999729e-01 4.404390000000000249e-01 6.781770000000000298e-01 -8.238900000000000112e-01 -6.744970000000000132e-01 -2.099310000000000065e-01 -2.809829999999999828e-01 -4.177640000000000242e-01 -4.094860000000000166e-01 1.452519999999999922e-01 -2.014209999999999889e-01 -4.053149999999999809e-01 -5.266140000000000265e-01 -1.191821000000000019e+00 1.052299999999999937e-02 -1.664170000000000094e-01 6.491099999999999648e-02 3.088119999999999754e-01 -5.194300000000000306e-02 -2.007649999999999990e-01 -1.277510000000000034e-01 -7.298350000000000115e-01 -1.084273000000000042e+00 7.942510000000000403e-01 9.573059999999999903e-01 -3.047199999999999909e-02 1.993599999999999886e-02 5.571559999999999846e-01 -2.849200000000000066e-01 -1.690919999999999923e-01 7.149400000000000199e-02 -4.083220000000000183e-01 3.808239999999999958e-01 -9.222160000000000357e-01 1.381586999999999898e+00 -9.064999999999999725e-01 1.701465999999999923e+00 5.236269999999999536e-01 5.275109999999999522e-01 -1.909645999999999955e+00 8.838559999999999750e-01
3.931790000000000007e-01 5.571999999999999696e-03 -7.191100000000000270e-01 1.617580000000000129e-01 9.161420000000000119e-01 1.620459000000000094e+00 1.511754999999999960e+00 1.175930000000000031e-01 6.535210000000000186e-01 6.976630000000000331e-01 8.081450000000000022e-01 2.423829999999999874e-01 1.629000000000000023e-03 3.233889999999999820e-01 1.083955999999999920e+00 -2.232999999999999916e-02 1.483740000000000059e-01 -1.420019999999999893e-01 4.398529999999999940e-01 -1.655139999999999945e-01 7.507810000000000317e-01 -1.055330000000000018e-01 -2.139889999999999848e+00 1.408360999999999974e+00 -7.668479999999999741e-01 -2.111719999999999986e-01 5.327300000000000091e-02 -9.512950000000000017e-01 -4.121420000000000083e-01 -6.624510000000000121e-01 -1.347142999999999979e+00 -3.758600000000000274e-01 -4.749610000000000221e-01 1.939750000000000085e-01 -1.058664000000000049e+00 -1.630929999999999880e-01 -7.639759999999999884e-01 6.584500000000000075e-02 3.519840000000000191e-01 9.105619999999999825e-01 -1.363409999999999900e-01 -1.005379000000000023e+00 9.202599999999999669e-02 1.971397000000000066e+00 -1.127748999999999890e+00 -7.428129999999999455e-01 1.043390000000000012e-01 3.642130000000000090e-01 -2.737780000000000213e-01 -4.291260000000000074e-01 -7.522729999999999695e-01 4.843419999999999948e-01 -9.821199999999999375e-02 -5.147650000000000281e-01 -1.537169999999999925e-01 5.073280000000000012e-01 -1.031155999999999962e+00 2.406899999999999873e-01 5.879800000000000304e-02 6.400899999999999646e-02
3.876299999999999885e-02 -2.203849999999999976e-01 -4.241739999999999955e-01 4.074169999999999736e-01 1.160037999999999903e+00 1.449850000000000083e+00 1.244035999999999920e+00 -8.096299999999999331e-02 -4.100210000000000243e-01 5.684719999999999773e-01 4.285039999999999960e-01 3.309100000000000236e-02 1.104721000000000064e+00 -2.635810000000000097e-01 -1.491449999999999942e+00 -5.873800000000000132e-01 -4.872380000000000044e-01 -1.032224000000000030e+00 -1.231280000000000013e-01 -2.885349999999999859e-01 -3.480860000000000065e-01 -5.571099999999999663e-02 -1.129460000000000047e-01 4.272420000000000107e-01 -4.312509999999999954e-01 -1.748929999999999929e-01 6.711920000000000108e-01 -2.062839999999999951e-01 -5.595090000000000341e-01 1.002470000000000028e-01 -4.886200000000000265e-02 5.694799999999999862e-02 -1.013700000000000018e-01 3.542500000000000093e-01 -1.126543999999999990e+00 -1.021566999999999892e+00 -3.692909999999999804e-01 3.438200000000000145e-01 -8.308200000000000307e-02 2.899570000000000203e-01 -5.654399999999999704e-02 -5.933499999999999885e-02 -1.189100000000000053e-02 1.058550000000000046e-01 -8.856399999999999828e-01 -1.473265999999999964e+00 6.941580000000000528e-01 2.160864000000000118e+00 3.361469999999999736e-01 1.056826999999999961e+00 1.311717000000000022e+00 6.963749999999999662e-01 2.119499999999999856e-02 -7.549730000000000052e-01 -1.378994000000000053e+00 -6.897379999999999622e-01 3.777659999999999907e-01 -3.540820000000000078e-01 1.935310000000000086e-01 7.995099999999999429e-02
-2.177779999999999994e-01 1.795700000000000074e-02 1.304910999999999932e+00 -3.962820000000000231e-01 1.091739999999999933e-01 2.183080000000000020e-01 -2.405410000000000048e-01 2.148859999999999937e-01 1.481860000000000122e-01 2.292019999999999891e-01 -3.625829999999999886e-01 1.107928999999999942e+00 6.763339999999999907e-01 7.209200000000000330e-02 2.199669999999999959e-01 -5.015929999999999556e-01 2.099540000000000017e-01 -2.498499999999999888e-01 -6.383800000000000585e-02 4.683919999999999750e-01 -2.195739999999999914e-01 3.130620000000000069e-01 -1.691179999999999906e-01 -4.034570000000000101e-01 1.549490000000000034e-01 2.219800000000000106e-01 -5.321139999999999759e-01 1.827900000000000080e-01 4.555379999999999985e-01 3.943999999999999589e-03 1.051679999999999976e-01 -6.792270000000000252e-01 -2.178730000000000111e-01 -6.339599999999999402e-02 1.055880000000000013e-01 -8.691419999999999702e-01 4.651040000000000174e-01 -3.766320000000000223e-01 -5.197789999999999910e-01 -2.168889999999999985e-01 1.947609999999999897e-01 1.390139999999999987e-01 -2.046119999999999883e-01 -3.714790000000000036e-01 2.286710000000000131e-01 6.488169999999999771e-01 -1.695129999999999970e-01 3.887109999999999732e-01 5.822738000000000191e+00 2.432497999999999827e+00 3.390059999999999740e-01 -1.706689999999999874e-01 -3.228400000000000020e-02 -1.437039999999999984e-01 -6.420395000000000074e+00 -2.393130000000000202e+00 -5.151139999999999608e-01 -1.021699999999999969e-01 5.114699999999999802e-02 -4.280410000000000048e-01
7.800049999999999484e-01 -3.916399999999999881e-01 1.042554999999999898e+00 -1.880640000000000089e-01 -1.747329999999999994e-01 -1.244399000000000033e+00 -9.263219999999999787e-01 1.578413000000000066e+00 2.472200000000000092e-02 5.422820000000000418e-01 -8.945239999999999858e-01 9.118900000000000616e-02 1.409430000000000127e-01 -2.786100000000000035e-02 -6.545260000000000522e-01 2.129209999999999992e-01 2.125569999999999959e-01 -2.484860000000000124e-01 5.470810000000000395e-01 -3.332740000000000147e-01 1.013325999999999949e+00 -1.098168000000000033e+00 2.156909999999999938e-01 -3.096030000000000171e-01 -2.580140000000000211e-01 4.012510000000000243e-01 -8.591490000000000515e-01 9.290859999999999674e-01 7.604099999999999748e-02 3.661019999999999830e-01 -2.773070000000000257e-01 5.280179999999999874e-01 -1.736709999999999920e-01 -3.833570000000000033e-01 1.670909999999999895e-01 -1.709950000000000081e-01 -1.646559999999999968e-01 1.935709999999999931e-01 -4.238049999999999873e-01 4.589969999999999883e-01 1.531999999999999942e-03 -2.669119999999999826e-01 -8.355400000000000327e-02 -1.616986000000000034e+00 1.164646000000000070e+00 -1.245269999999999988e-01 1.459340000000000082e-01 -5.698419999999999597e-01 6.636130000000000084e-01 -9.709060000000000468e-01 -1.497506000000000004e+00 6.823700000000000598e-02 -7.302910000000000235e-01 5.760340000000000460e-01 3.029799999999999854e-02 5.083109999999999573e-01 -7.458900000000000252e-02 -8.694950000000000179e-01 1.111804999999999932e+00 2.214910000000000156e+00
7.049999999999999323e-02 2.208789999999999920e-01 5.906310000000000171e-01 -1.813230000000000119e-01 8.588700000000000223e-01 3.289250000000000229e-01 -1.202089999999999964e-01 -1.932879999999999876e-01 5.949550000000000116e-01 -7.437390000000000390e-01 3.305870000000000197e-01 2.289440000000000086e-01 5.108310000000000350e-01 1.379675999999999902e+00 -3.901819999999999733e-01 -1.277919999999999889e-01 -6.528100000000000569e-02 -3.299200000000000049e-02 -8.598500000000000032e-01 5.762629999999999697e-01 4.700920000000000099e-01 2.018656000000000006e+00 1.417440999999999951e+00 2.375039999999999929e-01 2.819869999999999877e-01 -2.916250000000000231e-01 -1.933310000000000028e-01 3.667779999999999929e-01 -6.753399999999999681e-02 -2.341070000000000095e-01 -2.756120000000000236e-01 1.574180000000000024e-01 2.028210000000000013e-01 8.332349999999999479e-01 -3.074749999999999983e-01 -7.020929999999999671e-01 -1.134349999999999969e+00 -4.994629999999999903e-01 -1.299250000000000016e+00 -1.353787000000000074e+00 -9.614430000000000476e-01 -3.393050000000000233e-01 -8.210399999999999643e-02 -8.080869999999999997e-01 -7.258219999999999672e-01 -4.894120000000000137e-01 9.612400000000000111e-02 1.770100000000000007e-01 -2.241410000000000069e-01 -1.716445999999999916e+00 1.327493000000000034e+00 6.603780000000000205e-01 -1.014561999999999964e+00 -8.424190000000000289e-01 1.293029999999999902e+00 1.364630999999999927e+00 1.152579999999999938e+00 -4.430749999999999966e-01 -4.766859999999999986e-01 -5.514520000000000532e-01
-7.102829999999999977e-01 -1.162179999999999991e+00 2.162125000000000075e+00 -1.855350000000000055e-01 1.902089999999999892e-01 4.010130000000000083e-01 -2.136652999999999913e+00 1.946499999999999897e-01 -1.696935000000000082e+00 -2.903870000000000062e-01 4.190150000000000263e-01 3.332930000000000059e-01 1.016800000000000065e-01 2.881710000000000105e-01 5.559180000000000232e-01 1.648260000000000003e-01 -6.931289999999999951e-01 -7.346650000000000125e-01 2.656629999999999825e-01 3.077170000000000183e-01 2.539150000000000018e-01 -6.550470000000000459e-01 4.144269999999999898e-01 -5.862469999999999626e-01 -7.542659999999999920e-01 1.502509999999999957e-01 8.167510000000000048e-01 8.088359999999999994e-01 -1.131218000000000057e+00 1.884810000000000096e-01 1.251130000000000020e-01 -2.028023999999999827e+00 -8.773330000000000295e-01 2.035010999999999903e+00 1.178998999999999908e+00 -1.305957000000000034e+00 2.876529999999999920e-01 1.216785000000000005e+00 7.642599999999999394e-02 2.576370000000000049e-01 -8.674340000000000384e-01 2.459040000000000115e-01 -4.003590000000000204e-01 -8.902000000000000191e-03 -6.265500000000000236e-02 3.122860000000000080e-01 8.718789999999999596e-01 -1.616269999999999929e-01 -1.414610000000000034e-01 -4.853859999999999841e-01 8.828600000000000336e-02 6.941789999999999905e-01 -9.672000000000000042e-03 9.493500000000000549e-02 -4.064740000000000020e-01 1.258329999999999949e+00 6.985609999999999875e-01 6.275779999999999692e-01 -1.044889999999999985e-01 -4.901889999999999858e-01
-2.714340000000000086e-01 -1.767489999999999895e-01 -3.044089999999999852e-01 -2.015540000000000109e-01 8.708100000000000562e-02 3.834170000000000078e-01 4.538510000000000044e-01 -5.280070000000000041e-01 5.895049999999999457e-01 -1.538940000000000030e-01 -4.543740000000000001e-01 -4.377440000000000220e-01 -3.202380000000000226e-01 -1.014512000000000080e+00 5.942530000000000312e-01 -4.125150000000000206e-01 4.787799999999999695e-02 -1.254109999999999947e-01 2.435239999999999905e-01 4.238259999999999805e-01 -4.403569999999999984e-01 6.253670000000000062e-01 2.095779999999999865e-01 9.714580000000000437e-01 7.460560000000000525e-01 6.267570000000000086e-01 -5.049160000000000315e-01 -9.765300000000000369e-02 6.702930000000000277e-01 -1.313560000000000005e-01 -6.753850000000000131e-01 -1.558130000000000071e-01 -7.575800000000000589e-02 3.101099999999999968e-01 -2.482620000000000104e-01 3.076039999999999885e-01 -3.141689999999999761e-01 -5.023199999999999887e-02 -4.343770000000000131e-01 -5.653110000000000079e-01 -1.048189999999999955e-01 -6.405710000000000015e-01 -2.050099999999999978e-01 3.548740000000000228e-01 -1.058999999999999941e-01 5.309460000000000290e-01 -4.418810000000000238e-01 -1.900239999999999985e-01 1.501001999999999947e+00 -2.494180000000000008e-01 -9.409589999999999899e-01 3.176299999999999957e-02 -5.510070000000000245e-01 5.028400000000000231e-02 -7.772850000000000037e-01 9.612530000000000241e-01 1.372373000000000065e+00 -4.481689999999999841e-01 5.935329999999999773e-01 6.289000000000000146e-02
-5.222520000000000495e-01 2.956900000000000153e-02 5.813900000000000318e-02 4.115590000000000082e-01 -8.297269999999999923e-01 2.219409999999999994e-01 1.406576000000000048e+00 6.453100000000000502e-01 5.946909999999999696e-01 9.513999999999999888e-03 -7.777070000000000372e-01 -9.317799999999999694e-02 9.407339999999999591e-01 -1.539139999999999953e-01 -9.093890000000000029e-01 2.762279999999999736e-01 -7.370200000000000362e-02 2.015089999999999937e-01 -5.788579999999999837e-01 1.495430000000000093e-01 -2.883300000000000099e-02 1.206901999999999919e+00 7.141720000000000290e-01 -3.450619999999999798e-01 4.312499999999999667e-02 5.126560000000000006e-01 1.596140000000000059e-01 -2.104679999999999884e-01 -1.119409999999999988e-01 -3.484680000000000000e-01 -8.733349999999999724e-01 1.308690000000000131e-01 -6.049139999999999517e-01 2.799119999999999941e-01 -1.305929999999999869e-01 -2.097330000000000028e-01 -5.295659999999999812e-01 -2.351959999999999884e-01 -2.949869999999999992e-01 -1.354891000000000068e+00 -3.449209999999999776e-01 4.818890000000000118e-01 4.176210000000000200e-01 -7.944229999999999903e-01 6.323309999999999764e-01 -6.482339999999999769e-01 8.059290000000000065e-01 -7.409769999999999968e-01 1.092305000000000081e+00 -2.820210000000000217e-01 5.145549999999999846e-01 -9.726359999999999451e-01 3.505240000000000022e-01 5.097669999999999702e-01 -8.735140000000000127e-01 5.902770000000000516e-01 3.502700000000000258e-02 4.792779999999999818e-01 -1.947029999999999872e-01 1.660800000000000054e-01
2.983259999999999801e-01 8.747219999999999995e-01 2.723970000000000002e-01 -1.266230000000000133e-01 -1.039670000000000039e-01 -2.835700000000000026e-02 4.315900000000000292e-02 -4.993000000000000216e-02 -1.119518000000000013e+00 -4.118200000000000194e-01 -2.282949999999999979e-01 7.067900000000000293e-01 8.383450000000000069e-01 6.811110000000000220e-01 1.800559999999999938e-01 -1.367099999999999982e-01 -1.330099999999999894e-01 -2.733280000000000154e-01 -2.055359999999999965e-01 -1.054540000000000061e-01 -7.355299999999999339e-02 -9.935779999999999612e-01 -9.451749999999999874e-01 3.058040000000000203e-01 -5.007190000000000252e-01 1.148580000000000018e-01 -8.978800000000000670e-02 6.430930000000000257e-01 -4.988060000000000271e-01 -2.453899999999999831e-02 -3.764699999999999991e-02 6.908659999999999801e-01 5.751420000000000421e-01 -2.334320000000000006e-01 -1.087066000000000088e+00 3.748199999999999865e-01 7.065550000000000441e-01 1.549550000000000094e-01 1.455770000000000119e-01 2.728169999999999762e-01 4.013669999999999738e-01 6.044319999999999693e-01 -1.020818000000000003e+00 -3.534329999999999972e-01 1.219309999999999894e+00 1.925010000000000054e-01 -5.447599999999999665e-02 -1.244898000000000060e+00 5.389509999999999579e-01 1.849629999999999885e-01 9.643000000000000183e-02 9.848639999999999617e-01 -3.448140000000000094e-01 1.922069999999999890e-01 -2.527820000000000067e-01 -1.926350000000000007e-01 -8.032070000000000043e-01 -5.989449999999999497e-01 9.942189999999999639e-01 -1.015776000000000012e+00
-1.087499999999999994e-01 -1.362329999999999930e-01 1.074908999999999892e+00 -1.304579999999999906e-01 -5.766470000000000207e-01 6.353140000000000454e-01 3.406270000000000131e-01 -1.105420000000000014e-01 -4.690460000000000185e-01 -1.220283999999999924e+00 7.728580000000000449e-01 1.276991999999999905e+00 -2.150209999999999899e-01 4.251019999999999799e-01 5.744259999999999922e-01 1.189049999999999968e-01 8.072540000000000271e-01 1.537719999999999920e-01 -4.105230000000000268e-01 -3.498999999999999888e-01 -1.021389000000000102e+00 1.377812000000000037e+00 -1.546230000000000104e-01 -3.874230000000000174e-01 -8.448620000000000019e-01 3.660070000000000268e-01 -1.705240000000000089e-01 1.387761000000000022e+00 -9.184339999999999726e-01 -5.905719999999999859e-01 4.984529999999999794e-01 4.726569999999999938e-01 -2.277139999999999997e-01 1.010589999999999961e-01 2.153770000000000129e-01 -2.506650000000000267e-01 1.181858999999999993e+00 -5.102499999999999813e-01 -7.040499999999999536e-01 -1.247131999999999907e+00 -1.057414999999999994e+00 -1.348464000000000107e+00 -8.066370000000000484e-01 6.427479999999999860e-01 -2.673240000000000061e-01 -1.375700000000000013e-02 -4.286739999999999995e-01 -7.184840000000000115e-01 1.007050000000000028e-01 2.098829999999999862e-01 -1.575800000000000117e-02 1.868984999999999896e+00 7.859040000000000248e+00 -2.490910000000000069e-01 -1.722598999999999991e+00 -7.924407000000000423e+00 9.814089999999999758e-01 -2.561430000000000096e-01 3.961990000000000234e-01 1.723683000000000076e+00
4.424560000000000159e-01 -8.605310000000000459e-01 -1.115801000000000043e+00 5.123299999999999521e-01 2.043000000000000024e-02 9.493239999999999457e-01 1.677700000000000025e-01 -7.096259999999999790e-01 -1.849359999999999893e-01 4.521450000000000191e-01 -9.683009999999999673e-01 6.762289999999999690e-01 7.607620000000000493e-01 1.529927000000000037e+00 -3.850251999999999786e+00 -2.550189999999999957e-01 2.420685000000000198e+00 1.468196000000000057e+00 2.484679999999999944e-01 2.338669999999999916e-01 -2.461599999999999899e-02 3.399499999999999744e-02 -1.343887000000000054e+00 -5.313700000000000090e-01 -6.765400000000000580e-02 2.401109999999999911e-01 -2.505999999999999981e-03 -7.466810000000000391e-01 4.846230000000000260e-01 -1.092130000000000045e+00 -2.775520000000000209e-01 8.364549999999999486e-01 4.496249999999999969e-01 1.752740000000000131e-01 1.032512000000000096e+00 4.005349999999999744e-01 -2.140670000000000073e-01 -7.842780000000000307e-01 8.695340000000000291e-01 4.980800000000000227e-01 5.464539999999999953e-01 1.455980000000000052e-01 2.059930000000000094e-01 1.814141000000000004e+00 -9.887639999999999763e-01 -4.346860000000000168e-01 -1.087483999999999895e+00 2.020000000000000129e-01 -1.009789999999999993e-01 1.538902999999999910e+00 1.289703000000000044e+00 -3.671010000000000106e-01 -8.143920000000000048e-01 2.410170000000000090e-01 -1.264585000000000070e+00 -1.822921000000000014e+00 2.303736999999999924e+00 2.310490000000000044e-01 -2.306688999999999989e+00 -1.205122999999999944e+00