-6.809210487999999373e+01
-6.702154561000000399e+01
-6.756679560999999978e+01
-6.763057659999999771e+01
-6.677322569999999757e+01
-6.973865292000000693e+01
-6.466778603999999575e+01
-6.753408351000000209e+01
-6.735507708000000093e+01
-6.756488516999999661e+01
-6.726461188999999763e+01
-6.766472041999999476e+01
-6.663658569000000398e+01
-6.728756534000000045e+01
-6.812700024000000099e+01
-6.581582563000000619e+01
-6.654633979000000465e+01
-6.623170039999999403e+01
-6.591876288000000272e+01
-6.510542089999999860e+01
-6.593180777999999975e+01
-6.730628165999999624e+01
-6.539601475000000619e+01
-6.595083184000000642e+01
-6.552956555000000094e+01
-6.750743649999999718e+01
-6.811755372000000364e+01
-6.657906785999999499e+01
-6.612564609999999732e+01
-6.844347926000000371e+01
-6.620033392999999933e+01
-6.755616191999999387e+01
-6.760546795999999858e+01
-6.836880990000000224e+01
-6.702836060999999290e+01
-6.702506671000000438e+01
-6.849744359999999688e+01
-6.659774708000000487e+01
-6.598890758999999662e+01
-6.715788431000000003e+01
-6.733197855000000231e+01
-6.573757557000000418e+01
-6.838151340999999661e+01
-6.548564473000000419e+01
-6.833765519000000666e+01
-6.861722068999999635e+01
-6.714431412000000421e+01
-6.776475385999999901e+01
-6.692685740000000294e+01
-6.800165432999999382e+01
-6.803526888000000383e+01
-6.748727709000000630e+01
-6.747411671000000410e+01
-6.560471750000000668e+01
-6.582525390000000698e+01
-6.536040196999999807e+01
-6.857728505000000041e+01
-6.631529122000000598e+01
-6.613867849000000376e+01
-6.636287076000000695e+01
-6.715231792999999527e+01
-6.708655303999999830e+01
-6.808556084999999314e+01
-6.871992265000000089e+01
-6.584957764000000680e+01
-6.748984611000000200e+01
-6.626792231999999672e+01
-6.519623525000000086e+01
-6.658884987999999794e+01
-6.881501156000000208e+01
-6.879087568999999291e+01
-6.673661764999999946e+01
-6.756438690999999608e+01
-6.507892941999999437e+01
-6.612109692999999311e+01
-6.657696545999999671e+01
-6.638504638999999941e+01
-6.815079690000000312e+01
-6.848258375000000342e+01
-6.649338647000000435e+01
-6.812103881000000172e+01
-6.476263812999999914e+01
-6.690807227000000523e+01
-6.516868246999999315e+01
-6.708443286000000683e+01
-6.745858647000000019e+01
-6.597092173000000059e+01
-6.427700346999999681e+01
-6.781369533000000160e+01
-6.570479743999999300e+01
-6.857649315999999828e+01
-6.855321664999999598e+01
-6.820293182000000343e+01
-6.610359807999999759e+01
-6.442536721999999827e+01
-6.635482919999999751e+01
-6.645634495999999558e+01
-6.805985090999999443e+01
-6.608574552000000324e+01
-6.961105761999999686e+01
-6.806875001000000225e+01
-6.787842750000000080e+01
-6.620610082000000318e+01
-6.647770246999999699e+01
-6.643104334000000222e+01
-6.574807839999999715e+01
-6.728672747000000243e+01
-6.568524610999999425e+01
-6.786265525999999682e+01
-6.759514076000000671e+01
-6.566669887999999844e+01
-6.703269921000000409e+01
-6.688266231999999434e+01
-6.774834515000000579e+01
-6.627845232999999325e+01
-6.648054971000000535e+01
-6.632797252000000299e+01
-6.629503167000000019e+01
-6.689323634999999513e+01
-6.554060594000000606e+01
-6.838523533999999415e+01
-6.712736889999999335e+01
-6.563855875999999512e+01
-6.523855023000000131e+01
-6.544855569000000628e+01
-6.636070610999999531e+01
-6.683556853000000331e+01
-6.767214246999999716e+01
-6.702627171000000317e+01
-6.711242366999999831e+01
-6.845051116000000491e+01
-6.771335820999999555e+01
-6.791674118999999621e+01
-6.522674431999999456e+01
-6.597967008999999905e+01
-6.595223629000000187e+01
-6.615074787999999728e+01
-6.560886102999999991e+01
-6.672476398999999958e+01
-6.737312645999999461e+01
-6.674494217999999535e+01
-6.554904910999999856e+01
-6.451444592999999372e+01
-6.604110667999999862e+01
-6.666587671000000626e+01
-6.720132743000000630e+01
-6.633669826000000569e+01
-6.778031620999999518e+01
-6.709542996000000414e+01
-6.807447700999999540e+01
-6.801556496000000607e+01
-6.950064106000000663e+01
-6.842299167000000182e+01
-6.621938013000000467e+01
-6.576104014000000575e+01
-6.723014958000000263e+01
-6.482384623999999462e+01
-6.676748587999999529e+01
-6.679618947000000162e+01
-6.860219881999999814e+01
-6.592485516000000700e+01
-6.612815360999999825e+01
-6.647529577999999617e+01
-6.577497673000000589e+01
-6.594208510999999362e+01
-6.706381199000000493e+01
-6.701769461000000661e+01
-6.764399179000000117e+01
-6.799578318999999738e+01
-6.706809536999999466e+01
-6.626389081000000658e+01
-6.673243266000000062e+01
-6.782414574000000584e+01
-6.614753697000000443e+01
-6.532348494000000017e+01
-6.537803105999999786e+01
-6.739591815999999369e+01
-6.563968880999999556e+01
-6.832277661999999907e+01
-6.680379026999999326e+01
-6.830845906000000411e+01
-6.736258920999999589e+01
-6.595008147000000065e+01
-6.734889312999999333e+01
-6.846989718999999752e+01
-6.655716291000000240e+01
-6.684341070000000684e+01
-6.619215513999999700e+01
-6.652021086999999966e+01
-6.592796323000000314e+01
-6.863696975999999950e+01
-6.846851241000000243e+01
