-3.071900000000000186e-01 -1.287739999999999996e-01 -4.562200000000000144e-01 1.253833999999999893e+00 -4.984180000000000277e-01 5.042860000000000120e-01 -1.807940000000000103e-01 -3.191999999999999837e-01 9.533730000000000260e-01 4.559540000000000259e-01 -2.067170000000000119e-01 2.511260000000000159e-01 3.166100000000000164e-02 1.520982999999999974e+00 -4.633519999999999861e-01 1.043779000000000012e+00 -9.543540000000000356e-01 2.168769999999999865e-01 -1.212680000000000008e-01 4.657850000000000046e-01 3.525799999999999768e-02 9.256149999999999656e-01 6.609080000000000510e-01 -4.877279999999999949e-01 2.797200000000000242e-01 -3.772809999999999775e-01 1.103560000000000096e+00 -1.618567000000000089e+00 -2.523639999999999772e-01 -2.089129999999999876e-01 -4.068169999999999842e-01 1.467799999999999938e-01 8.209500000000000131e-02 -1.059482000000000035e+00 -1.001022000000000078e+00 1.359431000000000056e+00 1.009069999999999911e+00 1.828079999999999927e+00 -5.906879999999999908e-01 -7.571700000000000097e-01 7.676099999999999590e-02 8.213600000000000068e-02 -4.563960000000000239e-01 -2.775699999999999834e-01 -5.800309999999999633e-01 3.368199999999999666e-02 6.045530000000000070e-01 -4.066399999999999876e-02 -4.541709999999999914e-01 3.520800000000000041e-01 -7.066900000000000404e-01 1.178013999999999895e+00 9.969350000000000156e-01 6.054999999999999966e-02 3.788099999999999801e-01 -1.057064999999999921e+00 -1.098222000000000032e+00 -1.228285000000000071e+00 -1.580098999999999920e+00 -1.618299999999999947e-02
-8.642640000000000322e-01 3.823389999999999844e-01 2.203060000000000018e-01 9.392989999999999950e-01 9.049089999999999634e-01 4.764000000000000005e-03 1.481510000000000049e-01 1.141299999999999953e-02 1.773540000000000116e-01 1.151979999999999948e-01 -3.540420000000000234e-01 -9.526790000000000536e-01 -1.687281000000000031e+00 -6.888900000000000579e-02 1.606799999999999895e-01 9.251209999999999711e-01 -6.889000000000000158e-03 3.575010000000000132e-01 -2.626099999999999962e-02 -3.409139999999999948e-01 1.786989999999999967e-01 -6.380660000000000220e-01 -3.822800000000000087e-01 6.959260000000000446e-01 -7.702999999999999778e-03 -6.738680000000000225e-01 9.176099999999999535e-02 -7.426409999999999956e-01 -4.321690000000000254e-01 5.550620000000000553e-01 6.937899999999999623e-02 -4.682760000000000256e-01 7.637460000000000360e-01 -2.351610000000000089e-01 4.157199999999999784e-02 1.695689999999999975e-01 -1.367774999999999963e+00 4.994120000000000226e-01 -8.833459999999999646e-01 5.618570000000000508e-01 -1.372150999999999899e+00 -2.703249999999999820e-01 7.060319999999999929e-01 2.914359999999999729e-01 -1.089028000000000107e+00 3.967749999999999888e-01 8.494580000000000464e-01 3.054080000000000128e-01 -3.074779999999999736e-01 8.561959999999999571e-01 7.161389999999999700e-01 7.341079999999999828e-01 3.580720000000000014e-01 8.275510000000000366e-01 4.149630000000000263e-01 -7.021990000000000176e-01 -7.023540000000000338e-01 8.657470000000000443e-01 6.068689999999999918e-01 -1.326732999999999940e+00
-7.470130000000000381e-01 -5.994629999999999681e-01 1.163132999999999972e+00 -5.762289999999999912e-01 4.670690000000000119e-01 -2.216930000000000012e-01 2.505490000000000217e-01 -1.998699999999999921e-01 7.676479999999999970e-01 1.393443999999999905e+00 1.347920999999999925e+00 -6.339839999999999920e-01 5.344499999999999945e-02 2.304383000000000070e+00 1.337868000000000057e+00 1.239254000000000078e+00 -5.972020000000000106e-01 4.209430000000000116e-01 -2.193330000000000002e-01 -1.165191000000000088e+00 5.845609999999999973e-01 1.124999999999999958e-02 -8.047250000000000236e-01 -3.266600000000000059e-02 -1.046842000000000050e+00 -8.436200000000000643e-02 -5.247699999999999587e-01 -8.737979999999999636e-01 -2.859050000000000202e-01 2.669900000000000051e-02 1.722640000000000005e-01 1.887518999999999947e+00 3.590670000000000250e-01 -6.310000000000000053e-01 -1.045358000000000009e+00 -5.234119999999999884e-01 -1.485781000000000018e+00 -1.543339000000000016e+00 -8.401180000000000314e-01 1.113202999999999943e+00 1.798029999999999906e-01 -2.113559999999999883e-01 5.292649999999999855e-01 -1.755657999999999941e+00 -2.733578000000000063e+00 -2.134679999999999911e-01 1.220447000000000060e+00 -3.212240000000000095e-01 -1.550457999999999892e+00 -3.841010000000000257e-01 3.764020000000000143e-01 -8.837040000000000450e-01 2.145819999999999950e-01 6.351849999999999996e-01 2.125736999999999988e+00 1.686280999999999919e+00 -5.839839999999999476e-01 1.339215999999999962e+00 -8.428320000000000256e-01 9.552770000000000428e-01
-1.707959999999999923e+00 8.434800000000000630e-02 -1.876873999999999931e+00 3.677730000000000166e-01 -2.822879999999999834e-01 6.471599999999999575e-02 -3.622890000000000277e-01 -6.749239999999999684e-01 3.920210000000000083e-01 4.728580000000000005e-01 -2.468889999999999973e-01 4.295120000000000049e-01 -8.683279999999999887e-01 1.275613000000000108e+00 1.246320000000000067e-01 1.203534000000000104e+00 3.700260000000000216e-01 1.709660000000000069e-01 3.674029999999999796e-01 -3.932229999999999892e-01 -1.263100000000000056e-01 -4.348400000000000043e-01 1.061919999999999947e-01 -6.780190000000000383e-01 9.298589999999999911e-01 1.164290000000000047e-01 1.550648999999999944e+00 7.973700000000000232e-02 7.215679999999999872e-01 2.197550000000000059e-01 1.137529999999999930e+00 -2.823820000000000219e-01 -4.645569999999999977e-01 -6.541839999999999877e-01 4.240769999999999817e-01 1.780579999999999941e-01 -1.153659999999999963e-01 -1.063153999999999932e+00 -1.355830000000000091e-01 1.699046000000000056e+00 1.084851000000000010e+00 4.451140000000000096e-01 1.553700000000000081e-01 -1.674604999999999899e+00 2.900730000000000253e-01 -3.162960000000000216e-01 2.285899999999999876e-01 -5.896230000000000082e-01 5.030029999999999779e-01 6.674320000000000253e-01 4.390299999999999758e-02 -5.011679999999999469e-01 -3.585749999999999771e-01 4.599980000000000180e-01 -8.160429999999999628e-01 -1.041233000000000075e+00 -1.726499999999999979e-01 -1.139639000000000069e+00 9.381469999999999532e-01 -3.257789999999999853e-01
1.041290999999999967e+00 8.511520000000000197e-01 8.174670000000000547e-01 1.279606999999999939e+00 2.468072999999999961e+00 2.704105999999999899e+00 1.676390999999999964e+00 7.382509999999999906e-01 -5.915869999999999740e-01 2.242039999999999866e-01 -5.923180000000000112e-01 -4.730969999999999898e-01 -5.135429999999999717e-01 5.575000000000000094e-02 2.136210000000000053e-01 8.727449999999999930e-01 1.140440000000000065e-01 1.904949999999999977e-01 -8.678430000000000311e-01 4.281530000000000058e-01 -8.472210000000000019e-01 -8.002890000000000281e-01 3.025360000000000271e-01 -4.381999999999999611e-03 -5.427520000000000122e-01 -1.047304000000000013e+00 -3.337629999999999764e-01 -7.979039999999999466e-01 -3.864050999999999902e+00 -2.479410999999999810e+00 2.698899999999999910e-02 2.931210000000000204e-01 -5.400190000000000268e-01 1.406233000000000066e+00 9.402380000000000182e-01 1.279099999999999904e+00 -1.037674999999999903e+00 5.869499999999999718e-02 -2.847879999999999856e-01 -2.405500000000000138e-01 1.679740000000000122e-01 6.609270000000000422e-01 -4.860280000000000156e-01 3.641920000000000157e-01 -2.439759999999999984e-01 -3.253929999999999878e-01 9.720239999999999991e-01 -1.481830000000000092e-01 -2.878550000000000275e-01 -1.196282000000000068e+00 -3.771300000000000346e-02 -1.425044999999999895e+00 -8.873849999999999794e-01 5.442930000000000268e-01 3.529370000000000007e-01 1.603430000000000133e-01 2.818519999999999914e-01 4.444779999999999842e-01 -3.272090000000000276e-01 -7.077200000000000157e-01
-1.018192999999999904e+00 2.392700000000000035e-02 2.332879999999999954e-01 9.344289999999999541e-01 -4.572129999999999805e-01 -6.582499999999999463e-02 4.349859999999999838e-01 2.565709999999999935e-01 -3.018500000000000003e-02 -3.098119999999999763e-01 1.325510000000000022e-01 3.681260000000000088e-01 -6.935249999999999471e-01 -1.489620000000000111e-01 -2.010859999999999870e-01 4.609509999999999996e-01 2.316199999999999926e-01 -9.400509999999999700e-01 -4.833540000000000059e-01 -4.105690000000000173e-01 2.191049999999999942e-01 1.401439999999999908e-01 -4.891559999999999797e-01 -8.188900000000000345e-02 3.482899999999999885e-02 4.718040000000000012e-01 7.049819999999999975e-01 4.141310000000000269e-01 -6.515090000000000048e-01 6.790110000000000312e-01 2.238700000000000065e-02 1.297819000000000056e+00 -2.999109999999999832e-01 5.429890000000000549e-01 -5.123119999999999896e-01 2.311620000000000064e-01 -9.059610000000000163e-01 2.893870000000000053e-01 -5.350890000000000368e-01 7.034240000000000492e-01 -1.960582000000000047e+00 -6.747020000000000239e-01 6.151499999999999746e-01 2.100130000000000052e-01 -4.736480000000000135e-01 -2.696069999999999856e-01 -1.180149999999999949e-01 2.039930000000000077e-01 -2.415019999999999945e-01 4.551149999999999918e-01 -6.409600000000000020e-02 -9.312299999999999744e-02 -8.154550000000000409e-01 3.400090000000000057e-01 -6.754289999999999461e-01 2.016483000000000025e+00 -1.874319999999999875e-01 3.870859999999999856e-01 1.784860000000000058e-01 5.742410000000000014e-01
-8.421680000000000277e-01 3.722539999999999738e-01 6.128519999999999524e-01 7.648599999999999843e-01 1.282140999999999975e+00 5.506259999999999488e-01 7.525500000000000245e-02 1.023047999999999957e+00 -1.553641999999999967e+00 7.695370000000000266e-01 -5.804650000000000087e-01 1.135038999999999909e+00 3.747889999999999833e-01 -8.062009999999999454e-01 -1.084000000000000068e-02 -4.661790000000000100e-01 -1.006944000000000061e+00 3.488970000000000127e-01 4.922309999999999741e-01 2.944749999999999868e-01 -4.906849999999999823e-01 3.097679999999999878e-01 7.107800000000000229e-02 -4.668289999999999940e-01 1.181847000000000092e+00 1.126130000000000048e-01 -6.651299999999999990e-01 -7.158269999999999911e-01 1.628850000000000020e-01 -9.548910000000000453e-01 -2.304039999999999977e-01 -9.780619999999999870e-01 1.715348000000000095e+00 1.153958999999999957e+00 6.561999999999999778e-02 -3.431226999999999805e+00 2.763970000000000038e-01 7.727159999999999584e-01 -9.714690000000000270e-01 4.552240000000000175e-01 7.595769999999999467e-01 -6.999600000000000266e-01 -1.174410000000000037e-01 -6.009919999999999707e-01 -2.268779999999999963e-01 -3.037270000000000247e-01 1.040279999999999955e-01 -1.234269999999999951e-01 -7.916980000000000128e-01 -1.017519999999999980e+00 1.065266000000000046e+00 -1.762591000000000019e+00 5.269949999999999912e-01 3.124347999999999903e+00 3.619839999999999725e-01 4.807499999999999968e-02 2.253380000000000105e-01 -9.858160000000000256e-01 -6.053199999999999692e-01 8.172650000000000192e-01
-5.520300000000000207e-01 -1.659700000000000064e-01 -5.998830000000000551e-01 -2.291759999999999908e-01 7.045500000000000373e-02 1.499060000000000115e-01 -4.454199999999999826e-01 2.095100000000000087e-02 -1.180803000000000047e+00 -2.260250000000000037e-01 -3.610539999999999861e-01 -1.042005999999999988e+00 -4.203819999999999779e-01 3.884520000000000195e-01 -8.428499999999999881e-02 -2.832450000000000245e-01 -2.956489999999999951e-01 -2.920869999999999855e-01 2.912699999999999734e-01 5.729570000000000496e-01 -5.262259999999999716e-01 2.782160000000000188e-01 7.735980000000000079e-01 -7.723470000000000057e-01 1.856100000000000111e-02 1.540715999999999974e+00 1.050470000000000015e-01 9.131050000000000555e-01 3.434119999999999950e-01 -8.095170000000000421e-01 -4.435499999999999998e-01 -3.736909999999999954e-01 -3.427640000000000131e-01 6.551190000000000069e-01 2.178100000000000036e-01 4.525370000000000226e-01 3.318050000000000166e-01 -1.574378000000000055e+00 -1.458190000000000042e-01 -3.700379999999999781e-01 6.284589999999999899e-01 1.026148000000000060e+00 -3.260270000000000112e-01 -1.768067999999999973e+00 8.007950000000000346e-01 1.240079999999999932e-01 1.197440000000000032e-01 -2.715529999999999888e-01 1.987619999999999942e-01 -9.404500000000000082e-01 6.517500000000000515e-01 -5.980499999999999705e-02 5.859579999999999789e-01 9.670490000000000475e-01 4.797259999999999858e-01 -5.260299999999999698e-02 1.951910000000000034e-01 6.512400000000000133e-02 2.693499999999999783e-01 1.718863999999999947e+00
-9.392999999999999960e-02 6.422590000000000243e-01 1.493619999999999948e-01 -8.835400000000000198e-02 -5.513350000000000195e-01 -3.915080000000000227e-01 -9.050869999999999749e-01 -2.251620000000000010e-01 6.403839999999999533e-01 -2.963549999999999796e-01 -3.234980000000000078e-01 5.895460000000000145e-01 2.441290000000000127e-01 -3.045869999999999966e-01 -5.727600000000000052e-02 -8.204099999999999726e-01 -5.938999999999999835e-01 9.359220000000000317e-01 -2.170559999999999989e-01 3.640939999999999732e-01 2.812040000000000095e-01 4.565819999999999879e-01 1.422819999999999918e-01 -5.232729999999999881e-01 -1.929619999999999946e-01 3.867840000000000167e-01 -2.366870000000000085e-01 9.055900000000000061e-02 8.364699999999999913e-02 -8.847000000000000697e-03 6.470529999999999893e-01 -8.772469999999999990e-01 3.144259999999999833e-01 -8.185240000000000293e-01 1.425419999999999909e+00 1.302540999999999949e+00 8.670849999999999946e-01 -4.141270000000000229e-01 -2.315230000000000066e-01 -1.762869999999999993e-01 1.471959999999999935e-01 1.506260000000000099e-01 -5.696029999999999704e-01 1.029617999999999922e+00 -5.543829999999999592e-01 5.128489999999999993e-01 -3.589760000000000173e-01 -1.536059999999999925e-01 6.938950000000000395e-01 -2.998930000000000207e-01 -5.928919999999999746e-01 -2.190749999999999920e-01 1.419150000000000134e-01 1.883879999999999999e-01 6.100699999999999873e-02 -1.622389999999999943e-01 -1.459721999999999964e+00 8.244839999999999947e-01 -2.522499999999999742e-01 -3.426839999999999886e-01
-4.640250000000000208e-01 -3.239420000000000077e-01 -1.735090999999999939e+00 2.637660000000000005e-01 2.381880000000000108e-01 -1.765369999999999995e-01 5.350070000000000103e-01 -3.724930000000000185e-01 -8.738359999999999461e-01 6.921000000000000069e-03 3.829469999999999819e-01 -1.039606999999999948e+00 5.258199999999999680e-02 -5.926890000000000214e-01 1.620099999999999874e-01 -1.569250000000000034e+00 -2.752180000000000182e-01 -1.429450000000000109e+00 -3.386359999999999926e-01 9.693060000000000009e-01 -2.128339999999999954e-01 5.561329999999999885e-01 3.702250000000000263e-01 -3.600769999999999804e-01 6.568349999999999467e-01 -3.819969999999999755e-01 9.761919999999999487e-01 -6.019419999999999771e-01 7.743210000000000370e-01 1.493727999999999945e+00 -9.110949999999999882e-01 3.785199999999999676e-02 5.131090000000000373e-01 -7.782879999999999798e-01 8.243110000000000159e-01 1.242982000000000031e+00 -2.333540000000000059e-01 -6.992730000000000334e-01 -9.764509999999999579e-01 3.308249999999999802e-01 -8.723279999999999923e-01 1.619105000000000016e+00 1.098233999999999932e+00 8.799329999999999652e-01 -6.570909999999999807e-01 5.777029999999999665e-01 8.462999999999999690e-02 2.801810000000000134e-01 -4.735349999999999837e-01 -3.299210000000000198e-01 6.248280000000000500e-01 9.467029999999999612e-01 -5.686120000000000063e-01 9.458259999999999446e-01 -4.884769999999999945e-01 -9.313499999999999557e-02 -4.762700000000000267e-01 8.338929999999999954e-01 -5.210499999999999854e-02 7.928300000000000625e-02
-2.577799999999999883e-02 -1.092516000000000043e+00 -1.364870000000000028e+00 3.257349999999999968e-01 -2.437010000000000010e-01 -2.601140000000000119e-01 -4.497010000000000174e-01 3.034640000000000115e-01 5.956650000000000000e-01 -7.129309999999999814e-01 -1.070300000000000071e-02 -1.167129999999999973e-01 -2.069317999999999991e+00 2.738340000000000218e-01 -7.196730000000000071e-01 -4.797469999999999790e-01 4.697099999999999886e-02 8.543030000000000346e-01 -2.850079999999999836e-01 9.239859999999999740e-01 -2.919880000000000253e-01 3.666679999999999939e-01 -5.050369999999999582e-01 -5.886749999999999483e-01 4.014860000000000095e-01 5.871200000000000030e-02 2.825480000000000214e-01 1.022151999999999950e+00 9.326119999999999965e-01 -1.850241000000000025e+00 -6.089409999999999545e-01 -3.389889999999999848e-01 2.940630000000000188e-01 6.881610000000000227e-01 -7.846229999999999594e-01 4.079829999999999846e-01 -4.203520000000000034e-01 1.241646000000000027e+00 -9.441789999999999905e-01 5.323369999999999491e-01 1.344953000000000065e+00 1.676309000000000049e+00 1.126930000000000015e-01 -1.337514000000000092e+00 8.719499999999999473e-02 -1.428959999999999952e-01 -7.096620000000000150e-01 2.160199999999999967e-02 -8.329999999999999731e-04 -3.136360000000000259e-01 -1.445019999999999916e-01 1.112805999999999962e+00 7.278289999999999482e-01 6.651920000000000055e-01 -8.780799999999999716e-02 -1.586252999999999913e+00 4.476900000000000324e-02 7.212739999999999707e-01 1.068626999999999994e+00 1.351326000000000027e+00
-8.077520000000000255e-01 3.229899999999999993e-01 3.100200000000000178e-01 -6.594280000000000141e-01 7.304220000000000157e-01 6.283500000000000196e-02 -3.051010000000000111e-01 -4.120770000000000266e-01 6.268580000000000263e-01 7.721000000000000085e-02 1.888309999999999989e-01 2.605310000000000126e-01 -1.643094000000000054e+00 6.882479999999999709e-01 -1.190399999999999965e-02 1.106459999999999944e-01 -2.049130000000000118e-01 1.722360000000000002e-01 -1.439489999999999936e-01 -6.001020000000000243e-01 -3.414820000000000078e-01 -5.554499999999999993e-01 3.097809999999999730e-01 7.767789999999999973e-01 1.760180000000000078e-01 -4.409580000000000166e-01 -2.007099999999999995e-01 2.491800000000000126e-01 -3.878550000000000053e-01 1.042381000000000002e+00 3.835000000000000075e-01 -2.179079999999999906e-01 -1.992079999999999962e-01 -3.779649999999999954e-01 -3.146120000000000028e-01 -1.474299999999999916e-02 -1.180411000000000099e+00 4.468210000000000237e-01 -5.685029999999999806e-01 1.445302000000000087e+00 -9.557120000000000060e-01 -4.412019999999999831e-01 9.145339999999999581e-01 6.276979999999999782e-01 -1.125459999999999933e-01 5.109559999999999658e-01 -1.393890000000000129e-01 5.652299999999999686e-02 -3.818409999999999860e-01 3.155259999999999732e-01 1.352460000000000051e-01 8.647439999999999571e-01 -1.443029999999999868e-01 7.418099999999999694e-01 5.990959999999999619e-01 -3.824710000000000054e-01 -4.801170000000000160e-01 7.238069999999999782e-01 5.699840000000000462e-01 -1.814804000000000084e+00
2.355309999999999904e-01 2.612670000000000270e-01 -4.626959999999999962e-01 -6.615710000000000202e-01 -3.828469999999999929e-01 9.083700000000000108e-02 -8.042749999999999622e-01 -5.176570000000000338e-01 4.024599999999999705e-02 1.476096000000000075e+00 1.069190000000000002e-01 -1.091911000000000076e+00 -1.051340000000000052e-01 1.153229999999999950e-01 9.800079999999999902e-01 6.361850000000000005e-01 6.168409999999999727e-01 -8.910390000000000255e-01 9.752500000000000058e-02 1.726459999999999939e-01 5.787759999999999572e-01 -3.333070000000000199e-01 -4.150630000000000153e-01 -1.295012000000000052e+00 -1.329124999999999890e+00 1.579949999999999966e-01 1.806669999999999943e-01 1.348557000000000006e+00 4.364520000000000066e-01 -5.479209999999999914e-01 -1.254629999999999912e+00 -7.741019999999999568e-01 5.525229999999999864e-01 -8.246630000000000349e-01 1.963219999999999965e-01 9.272800000000000487e-02 -5.454949999999999521e-01 -5.639140000000000263e-01 2.327299999999999924e-01 1.180874999999999897e+00 4.486899999999999916e-02 1.187154000000000043e+00 1.509790000000000021e-01 -7.696450000000000236e-01 1.609889999999999932e-01 1.803800000000000125e-01 -2.694079999999999808e-01 -1.680230000000000057e-01 7.205899999999999528e-01 8.052899999999999503e-01 7.726640000000000175e-01 2.474739999999999995e-01 7.940939999999999666e-01 3.120209999999999928e-01 -5.332900000000000140e-02 2.737510000000000221e-01 1.170859999999999956e-01 -3.626630000000000131e-01 -2.891329999999999734e-01 -8.418290000000000495e-01
6.392999999999999794e-01 1.136800000000000033e-01 -7.791620000000000212e-01 -6.540550000000000530e-01 -7.619029999999999969e-01 -7.521529999999999605e-01 2.095140000000000058e-01 1.395890000000000075e+00 -3.575010000000000132e-01 -4.644539999999999780e-01 -1.899844000000000088e+00 -6.508439999999999781e-01 -1.137275000000000036e+00 1.744010000000000005e-01 2.722149999999999848e-01 -2.333389999999999909e-01 -8.649480000000000501e-01 2.648380000000000178e-01 -2.197608999999999924e+00 1.734960000000000058e+00 -1.829164999999999930e+00 -1.371769999999999934e-01 -1.205734000000000083e+00 1.193108999999999975e+00 6.824249999999999483e-01 5.122440000000000326e-01 -4.463230000000000253e-01 3.477319999999999856e-01 -6.174539999999999473e-01 4.823239999999999750e-01 5.317749999999999977e-01 1.083943000000000101e+00 1.813599999999999934e-01 -3.730370000000000075e-01 -5.349799999999999695e-02 -7.317139999999999755e-01 -4.175449999999999995e-01 3.909989999999999855e-01 2.531669999999999754e-01 1.781922000000000006e+00 -1.482008999999999910e+00 1.565603000000000078e+00 1.214409999999999934e-01 8.239389999999999770e-01 8.058410000000000295e-01 7.871120000000000339e-01 5.928010000000000224e-01 3.926149999999999918e-01 -8.123590000000000533e-01 7.015599999999999614e-02 2.806279999999999886e-01 1.421043000000000056e+00 -7.233910000000000062e-01 4.731469999999999843e-01 -3.756829999999999892e-01 8.199760000000000382e-01 -8.477069999999999883e-01 2.802689999999999904e-01 -1.042089999999999961e-01 2.297230000000000105e-01
1.320422999999999902e+00 -2.613815000000000222e+00 -8.918430000000000524e-01 -2.435670000000000057e-01 -2.185207000000000122e+00 -2.696339999999999848e-01 -7.727000000000000535e-02 -4.985330000000000039e-01 3.244679999999999787e-01 3.857889999999999930e-01 3.867039999999999922e-01 3.733369999999999744e-01 8.675049999999999706e-01 3.814409999999999745e-01 -3.101920000000000233e-01 4.193299999999999805e-01 1.796256999999999993e+00 3.029789999999999983e-01 4.957539999999999725e-01 7.399839999999999751e-01 -6.346549999999999692e-01 -3.762999999999999678e-02 -1.722009999999999930e-01 -4.141870000000000274e-01 -7.787819999999999743e-01 -4.735010000000000052e-01 -2.804960000000000231e-01 -2.115710000000000091e-01 -8.414770000000000305e-01 -4.701299999999999923e-02 -9.007770000000000499e-01 5.485820000000000141e-01 -2.153359999999999996e-01 8.075419999999999821e-01 -2.760489999999999888e-01 -2.367690000000000072e-01 -1.332520000000000093e-01 2.556348999999999982e+00 1.424033000000000104e+00 -1.323429999999999884e-01 5.135189999999999477e-01 9.811659999999999826e-01 -3.840259999999999785e-01 3.082449999999999912e-01 4.240070000000000228e-01 -7.293579999999999508e-01 -2.909379999999999744e-01 -6.050210000000000310e-01 2.501289999999999902e-01 -9.544150000000000134e-01 -2.856400000000000050e-01 -8.729759999999999742e-01 -1.255529999999999979e-01 7.518890000000000295e-01 -5.654120000000000257e-01 -3.592210000000000125e-01 -3.340800000000000020e-02 5.204919999999999547e-01 1.559825999999999935e+00 -3.576840000000000019e-01
-7.879660000000000553e-01 -4.262000000000000163e-03 -7.769399999999999917e-02 1.800509999999999888e-01 -6.151830000000000354e-01 -1.848450000000000093e-01 1.188309000000000060e+00 -7.850570000000000048e-01 -6.345849999999999547e-01 1.150290000000000062e-01 -7.911650000000000071e-01 -7.230330000000000368e-01 -1.192617999999999956e+00 -2.248549999999999993e-01 -2.616569999999999729e-01 -3.842399999999999982e-02 3.407140000000000168e-01 -1.708530000000000049e-01 9.515400000000000247e-02 -4.306610000000000160e-01 -2.789989999999999970e-01 -8.597339999999999982e-01 1.474820999999999938e+00 6.337380000000000235e-01 -4.544119999999999826e-01 -2.662479999999999847e-01 2.989410000000000123e-01 1.792920000000000069e-01 -2.543899999999999981e-02 8.227889999999999926e-01 -3.067639999999999811e-01 4.443059999999999787e-01 -7.550099999999999589e-01 -6.548400000000000054e-02 1.453329000000000093e+00 -2.210209999999999952e-01 3.976629999999999887e-01 7.864440000000000319e-01 2.331529999999999991e-01 1.220558999999999950e+00 -3.854600000000000248e-01 6.617750000000000021e-01 -4.185760000000000036e-01 -4.564110000000000111e-01 -5.092499999999999805e-01 1.485130999999999979e+00 1.119461000000000039e+00 7.965410000000000545e-01 -3.699600000000000111e-02 2.924919999999999742e-01 3.827099999999999946e-01 1.394170000000000131e-01 -1.947756000000000043e+00 5.089110000000000023e-01 -5.316570000000000462e-01 5.385590000000000099e-01 -9.454810000000000159e-01 -3.079729999999999968e-01 -5.176290000000000058e-01 4.238709999999999978e-01
2.001020000000000021e-01 1.352247999999999895e+00 1.772429000000000032e+00 -1.583980000000000110e-01 -4.104780000000000095e-01 2.986210000000000253e-01 1.403926999999999925e+00 8.895710000000000006e-01 -3.384840000000000071e-01 2.489748000000000072e+00 1.071541000000000077e+00 3.354960999999999860e+00 4.340399999999999814e-01 5.753129999999999633e-01 -2.422519999999999951e-01 3.170769999999999977e-01 2.614150000000000085e-01 -2.797609999999999819e-01 -1.595971999999999946e+00 -1.608459999999999890e-01 3.456230000000000135e-01 2.691326999999999803e+00 -1.793589999999999907e-01 -5.743979999999999642e-01 3.327999999999999708e-02 -2.715413999999999994e+00 -1.082359999999999989e+00 -5.223970000000000002e-01 -4.650670000000000082e-01 4.822199999999999820e-01 -7.975609999999999644e-01 4.117990000000000261e-01 9.332399999999999585e-01 -5.941389999999999727e-01 -5.538260000000000405e-01 -4.017299999999999760e-01 -9.924299999999999788e-02 8.729000000000000647e-03 -1.067101000000000077e+00 -6.709289999999999976e-01 -1.280388000000000082e+00 3.200450000000000239e-01 1.271829999999999905e-01 -5.128399999999999626e-01 -3.043230000000000102e-01 -1.468339999999999923e-01 1.715303000000000022e+00 3.604640000000000066e-01 -1.038879999999999942e-01 1.304960000000000009e-01 3.764270000000000116e-01 -1.105982000000000021e+00 -1.018278000000000016e+00 3.762090000000000156e-01 6.781000000000000361e-01 5.068859999999999477e-01 -8.396839999999999860e-01 -2.579441000000000095e+00 3.731949999999999990e-01 -3.490146000000000193e+00
1.625023000000000106e+00 6.093549999999999800e-01 1.575800000000000117e-02 2.064799999999999969e-02 -2.933399999999999896e-01 -3.678500000000000103e-01 2.581600000000000006e-01 -5.491120000000000445e-01 4.589499999999999830e-02 -4.922980000000000134e-01 6.458209999999999784e-01 2.096899999999999875e-01 -4.651759999999999784e-01 -1.271359999999999990e-01 -1.980423999999999962e+00 -3.649319999999999786e-01 1.937109999999999943e-01 3.474869999999999903e-01 -3.399130000000000207e-01 3.927979999999999805e-01 1.398711999999999955e+00 -3.889699999999999824e-01 -4.663010000000000210e-01 -1.518559999999999910e-01 6.146880000000000122e-01 -5.074030000000000484e-01 3.918730000000000269e-01 -1.545539999999999969e-01 -2.542019999999999835e-01 -7.973099999999999632e-01 5.007030000000000092e-01 -2.383770000000000056e-01 -1.114848000000000061e+00 -9.312719999999999887e-01 -2.081610000000000127e-01 3.491920000000000024e-01 -2.161309999999999898e-01 -4.966130000000000266e-01 4.310729999999999840e-01 2.758220000000000116e-01 2.501149999999999762e-01 -5.822220000000000173e-01 8.862879999999999647e-01 -5.402209999999999512e-01 8.925149999999999473e-01 -2.578250000000000264e-01 1.383040000000000047e+00 2.668030000000000124e-01 -5.242869999999999475e-01 -2.974609999999999754e-01 -4.913020000000000165e-01 -9.701539999999999608e-01 -3.449030000000000151e-01 -1.134870000000000045e-01 4.751699999999999813e-01 4.427059999999999884e-01 4.070509999999999962e-01 4.490069999999999895e-01 4.056870000000000198e-01 8.432509999999999728e-01
-9.719400000000000261e-02 5.760800000000000365e-01 3.710189999999999877e-01 -7.733400000000000274e-01 8.446510000000000407e-01 5.052269999999999817e-01 1.473746000000000000e+00 -5.931499999999999967e-02 5.440399999999999681e-01 -1.775045999999999902e+00 -2.443569999999999909e-01 -6.269609999999999905e-01 -1.242980000000000057e-01 1.215686999999999962e+00 9.819269999999999943e-01 -9.640039999999999720e-01 8.161620000000000541e-01 1.125820000000000015e-01 -4.835360000000000213e-01 -1.317420000000000035e+00 2.347459000000000184e+00 -1.199683999999999973e+00 1.290830000000000033e-01 5.396140000000000381e-01 6.313990000000000435e-01 -8.019199999999999662e-01 -4.505649999999999933e-01 6.956679999999999531e-01 -1.691808999999999896e+00 -5.056720000000000104e-01 -5.803390000000000493e-01 8.581670000000000131e-01 -1.100310000000000038e-01 1.256204000000000098e+00 -1.844820000000000071e-01 2.194029999999999869e-01 5.907099999999999573e-01 4.975720000000000143e-01 -1.683521000000000045e+00 4.513380000000000170e-01 -4.682000000000000398e-03 2.118420000000000025e-01 1.193120000000000014e-01 7.518500000000000183e-02 7.682050000000000267e-01 4.681339999999999946e-01 3.987970000000000126e-01 -2.316608000000000001e+00 1.516379999999999950e-01 -6.539960000000000218e-01 -3.472660000000000191e-01 -1.446209999999999996e-01 -5.451989999999999892e-01 -4.362400000000000305e-02 -4.004610000000000114e-01 9.048100000000000587e-02 -1.212806000000000051e+00 7.043749999999999734e-01 1.314000000000000064e-03 6.957360000000000211e-01