-3.513947642534556604e+00 2.611888912117814043e-01 1.581199077623609561e+00 2.611888912117814043e-01 -3.890358308220682293e+00 3.005084682691759213e+00 1.581199077623609561e+00 3.005084682691759213e+00 2.748267889331343916e+00
1.647990064588614301e+00 -2.265849372401090633e+00 7.676365554476017872e-01 -2.265849372401090633e+00 6.413714478760788040e-01 -1.034677529506207172e+00 7.676365554476017872e-01 -1.034677529506207172e+00 -2.415227241350466514e+00
1.097551687132482634e+01 -9.024481670716347770e-01 -6.308652399530088051e-01 -9.024481670716347770e-01 9.028257142324903839e+00 1.603501030811355310e+00 -6.308652399530088051e-01 1.603501030811355310e+00 7.931613174962137691e+00
-8.904896906185024719e+00 -3.130853791053867408e+00 7.820317353863179832e-01 -3.130853791053867408e+00 3.221590536443143638e+00 -2.199894120967302413e+00 7.820317353863179832e-01 -2.199894120967302413e+00 -2.831463378812502985e+00
5.441888662744551297e+00 1.564378979212053267e+00 -1.457758476639855028e+00 1.564378979212053267e+00 1.254299379394795189e+01 3.824099090283773261e+00 -1.457758476639855028e+00 3.824099090283773261e+00 1.295787436208180488e+00
-3.705779896072127322e+00 -2.501050913958809296e+00 -2.444296149323974099e+00 -2.501050913958809296e+00 -7.172600785940618451e+00 1.259829866598050518e+00 -2.444296149323974099e+00 1.259829866598050518e+00 -3.323552188091477011e-01
3.789474509364137322e+00 2.664600252461281293e+00 9.918954134985787929e-01 2.664600252461281293e+00 8.712989778428902321e-01 -8.679187565807161553e-01 9.918954134985787929e-01 -8.679187565807161553e-01 5.055766425947323839e+00
-5.326819031649114855e+00 -7.851555961616263346e-01 3.551807856504270444e-01 -7.851555961616263346e-01 -1.469928372003520903e-02 5.038137971641728496e-01 3.551807856504270444e-01 5.038137971641728496e-01 -4.356925827378910654e+00
-6.026457481500168356e+00 1.733752394420131404e+00 2.306074186857516306e+00 1.733752394420131404e+00 -2.707924345522224385e+00 1.852521415390474269e-01 2.306074186857516306e+00 1.852521415390474269e-01 5.191352959824207858e+00
-6.773594199560781348e+00 4.420385343100130093e+00 -3.965288590428341031e+00 4.420385343100130093e+00 -5.351822364822542255e+00 -5.744698770944003385e-01 -3.965288590428341031e+00 -5.744698770944003385e-01 3.579470983061511902e+00
-4.657716844201310047e-01 4.035029013580381907e+00 5.760079310146025477e+00 4.035029013580381907e+00 3.233075301233728993e+00 4.045564665209343325e+00 5.760079310146025477e+00 4.045564665209343325e+00 4.768563770494750997e+00
2.251666720359071228e+00 -1.867854772528476426e+00 1.010253509514716486e+00 -1.867854772528476426e+00 -1.640381828795801633e+00 6.914616283039102251e-01 1.010253509514716486e+00 6.914616283039102251e-01 -1.314431493250890703e+00
-5.741423141743097425e+00 1.243214203476934038e-01 -4.920015838902008554e+00 1.243214203476934038e-01 2.773131204277030193e+00 3.583324516834530016e+00 -4.920015838902008554e+00 3.583324516834530016e+00 6.846712258904615211e+00
-8.679267337340166311e-01 3.985019590566784009e-01 2.999691261907273976e+00 3.985019590566784009e-01 -4.040130662042584753e+00 -3.435373823007490390e+00 2.999691261907273976e+00 -3.435373823007490390e+00 -4.109273748421825800e+00
1.254893135842890306e+00 -2.772963805890365840e+00 1.960795497951036026e+00 -2.772963805890365840e+00 1.534832679551585866e+00 3.271808401013290180e+00 1.960795497951036026e+00 3.271808401013290180e+00 3.108463717216380928e-01
-1.952189246427137315e+00 5.779572769002567778e-01 -2.732353945272448570e+00 5.779572769002567778e-01 -2.738755192801475502e+00 6.238505091848153050e+00 -2.732353945272448570e+00 6.238505091848153050e+00 -4.048884687072824562e+00
2.105363114071864827e-01 1.770120519747446775e+00 3.669379235840398934e+00 1.770120519747446775e+00 -1.713261317054755706e+00 5.679221340216245473e+00 3.669379235840398934e+00 5.679221340216245473e+00 7.623503803556336500e+00
-4.682505375477357568e+00 1.836203332603552063e-01 3.908107042975209389e+00 1.836203332603552063e-01 3.793887613806685710e+00 -1.856129796218778827e+00 3.908107042975209389e+00 -1.856129796218778827e+00 -1.956445551417835549e-01
1.373339879992947665e+01 -4.112211299429480604e+00 -2.963132658955112131e+00 -4.112211299429480604e+00 1.631816531685632121e+00 1.250848269073886243e+00 -2.963132658955112131e+00 1.250848269073886243e+00 -4.797004348647679883e+00
9.305681686826730581e-02 2.488109113764275904e+00 2.559417376083738649e+00 2.488109113764275904e+00 -3.115628804055016410e+00 -1.682865681566689808e-01 2.559417376083738649e+00 -1.682865681566689808e-01 -1.803628923464761336e+00
-4.924524439753708904e+00 -3.178813606918943435e+00 -1.223430634541423867e+00 -3.178813606918943435e+00 -4.328604444148682617e+00 9.264744898668207940e-01 -1.223430634541423867e+00 9.264744898668207940e-01 -2.828315214289385260e+00
2.058020881802931079e+00 -2.668880648484025286e+00 -8.555117438410516639e-01 -2.668880648484025286e+00 2.561276028200504262e-01 -7.313923449230143037e-01 -8.555117438410516639e-01 -7.313923449230143037e-01 -1.112409522879900248e+00
2.580707536923244616e-01 -2.034780583517789232e+00 -3.565770452027027027e+00 -2.034780583517789232e+00 9.141779396506505284e-01 1.229566737057713688e+00 -3.565770452027027027e+00 1.229566737057713688e+00 3.039042551177151275e+00
2.899231667897764098e+00 -4.697298279205706528e+00 8.404430749449881555e-01 -4.697298279205706528e+00 9.497859188780080064e-01 1.170986512354551978e+00 8.404430749449881555e-01 1.170986512354551978e+00 1.613034198519015083e+00
5.090668562234642813e+00 1.489656289667506073e+00 -7.476187018218158009e+00 1.489656289667506073e+00 2.519467555287691951e+00 7.275895706402348839e-01 -7.476187018218158009e+00 7.275895706402348839e-01 1.556471277611255033e+01
-8.519290128589218636e-01 -1.526660454042085613e+00 -6.456152960989606227e-01 -1.526660454042085613e+00 -7.457642688456457059e+00 2.641233532094036551e+00 -6.456152960989606227e-01 2.641233532094036551e+00 7.203874351361677419e+00
9.480214949394525803e+00 1.648290488083038241e+00 -3.647046040944155187e+00 1.648290488083038241e+00 6.196417338674059749e+00 -5.445452154350022056e+00 -3.647046040944155187e+00 -5.445452154350022056e+00 7.866550434818009307e+00
3.704342067468936683e+00 -1.887648286942841702e+00 8.592615469050077781e-01 -1.887648286942841702e+00 -1.135107156120673533e-01 -8.182448388175279641e-01 8.592615469050077781e-01 -8.182448388175279641e-01 7.486428940883847361e+00
2.661618206433647438e-01 4.639632578329311863e-01 -5.336406663176683551e+00 4.639632578329311863e-01 -6.141934924536328388e+00 -3.633319920388686342e+00 -5.336406663176683551e+00 -3.633319920388686342e+00 -4.303064301003380443e+00
3.746281963731448172e+00 -2.211168866418047607e-01 -3.011876381157070792e+00 -2.211168866418047607e-01 9.097280914272596775e+00 -1.588732771214603989e+00 -3.011876381157070792e+00 -1.588732771214603989e+00 -7.611868558802415974e-01
-1.226491648075471064e+00 -1.076504369358076696e+00 3.004048038050198599e+00 -1.076504369358076696e+00 -2.211176850069648037e+00 1.343227171358080785e+00 3.004048038050198599e+00 1.343227171358080785e+00 3.451953476237937246e-01
2.868860070240938365e-01 -4.764573835710814720e-01 -1.149424673337860581e+00 -4.764573835710814720e-01 -5.199014567520265473e+00 4.918062521879243421e-01 -1.149424673337860581e+00 4.918062521879243421e-01 8.635081915003709696e+00
-2.003035081042058296e-01 -1.039007675058716273e+00 8.178439395332816053e-01 -1.039007675058716273e+00 6.866284686513765223e+00 1.004887767641386098e+01 8.178439395332816053e-01 1.004887767641386098e+01 1.255775978287893224e+01
-6.578628479411785968e+00 2.001831577766221670e+00 -1.099112202652476444e+00 2.001831577766221670e+00 -1.607218207540976707e+01 1.194174878823585528e+00 -1.099112202652476444e+00 1.194174878823585528e+00 -2.730398708752861836e+00
6.147349791724956880e+00 1.942956077422962169e+00 -8.679554298964746728e-01 1.942956077422962169e+00 4.337813234418923969e+00 3.471272668062783229e+00 -8.679554298964746728e-01 3.471272668062783229e+00 4.109661209198395504e+00
6.863394857153732875e-01 3.075199896688964429e+00 -2.134799432585110512e+00 3.075199896688964429e+00 7.999547222638875965e+00 2.005728125695617869e+00 -2.134799432585110512e+00 2.005728125695617869e+00 -5.658791800196218968e-01
-5.929623589150107676e+00 -3.121914507105886027e+00 -7.960972574291507176e-01 -3.121914507105886027e+00 -3.331310630456881139e+00 1.245506999526251990e+00 -7.960972574291507176e-01 1.245506999526251990e+00 1.872466432047806828e+00
9.392440916546254570e+00 -3.547839164204155682e-01 4.664641924060407341e+00 -3.547839164204155682e-01 1.300672316692578612e+01 -1.449288010372415947e+00 4.664641924060407341e+00 -1.449288010372415947e+00 7.628572116007762416e-01
9.080781364819170420e+00 -5.428355422123708474e-01 -1.130896421735169577e+00 -5.428355422123708474e-01 1.142918524388304036e+01 -3.419733298080614853e-02 -1.130896421735169577e+00 -3.419733298080614853e-02 -6.708235097898560539e-01
1.244013725989485764e+01 -1.629658205904944479e+00 2.688293050884872137e+00 -1.629658205904944479e+00 -3.666053710242218044e-01 2.690370317138119916e+00 2.688293050884872137e+00 2.690370317138119916e+00 7.158484367410140159e+00
-6.108562376499097724e+00 5.410524915380579891e+00 1.435857749113190751e+00 5.410524915380579891e+00 -3.818667698325352577e-01 4.690371104609634578e+00 1.435857749113190751e+00 4.690371104609634578e+00 1.973506330084185301e+00
-9.220996823313755142e-01 1.664959988921047573e+00 3.730014281334342208e+00 1.664959988921047573e+00 -2.576236037451595795e-01 6.702733224463665040e-01 3.730014281334342208e+00 6.702733224463665040e-01 -5.101996982641771039e-01
-9.082680110383023475e+00 3.493034520740991855e+00 -1.449351256670654786e+00 3.493034520740991855e+00 4.022322598952289496e+00 2.673942388563743222e+00 -1.449351256670654786e+00 2.673942388563743222e+00 -3.073333176579392756e+00
-8.111012214548159349e+00 -3.815200748354413030e+00 -1.631900806536819459e+00 -3.815200748354413030e+00 -3.805811938037819253e+00 2.020025172050635920e+00 -1.631900806536819459e+00 2.020025172050635920e+00 3.747756090730233414e+00
5.809608955239603745e+00 4.469743032048786313e-01 2.691499004976000364e+00 4.469743032048786313e-01 1.947547061354415021e+01 1.902528793561918619e+00 2.691499004976000364e+00 1.902528793561918619e+00 5.190738727162986343e+00
1.540052223068936188e+00 -1.130968482099180328e+00 5.633177539478812612e+00 -1.130968482099180328e+00 8.530871598702066905e+00 -5.720770248653512802e-01 5.633177539478812612e+00 -5.720770248653512802e-01 7.343548361794189461e+00
1.088340473381860818e+01 -5.818119358816296938e+00 -1.531420219134187688e+00 -5.818119358816296938e+00 1.204214544779804719e+01 1.397810828356049528e+00 -1.531420219134187688e+00 1.397810828356049528e+00 -2.655717066299478013e+00
-6.969802161725366929e+00 -1.897430833410002737e+00 1.919048979637445695e+00 -1.897430833410002737e+00 8.138815477778026386e-01 -8.394352490233247810e-01 1.919048979637445695e+00 -8.394352490233247810e-01 9.855440993881122713e-01
5.487974030702628125e-01 2.145187578532637307e+00 6.053081009876549956e+00 2.145187578532637307e+00 -4.116243016204604865e-01 1.736456535047875782e+00 6.053081009876549956e+00 1.736456535047875782e+00 5.838326591481588501e+00
-7.247422371135792574e+00 -1.002225622322217902e+00 -4.185818040024983366e-01 -1.002225622322217902e+00 -5.426123461004793924e+00 2.741935729471491889e+00 -4.185818040024983366e-01 2.741935729471491889e+00 1.055706347149606295e+01
-8.237547058529505861e+00 -3.143235066600504890e+00 1.974953587735305049e+00 -3.143235066600504890e+00 2.594586367297604390e+00 2.386790434632020952e-01 1.974953587735305049e+00 2.386790434632020952e-01 -2.586879274067712231e+00
9.176184837695828378e+00 3.078793850586094560e+00 -1.271704622442896504e+00 3.078793850586094560e+00 -1.569898482617597457e+00 -2.238546233913441430e+00 -1.271704622442896504e+00 -2.238546233913441430e+00 -2.606199517591779813e+00
-1.206954340792666391e-01 -8.595405879395509041e-01 -1.054124039206608465e+00 -8.595405879395509041e-01 -6.556586857259224743e+00 1.439310560404066797e+00 -1.054124039206608465e+00 1.439310560404066797e+00 1.011706714457996625e+01
-1.014542121111391992e+01 -2.181614533134071277e+00 3.771172374107065295e+00 -2.181614533134071277e+00 1.559939971913640866e+00 -7.511790117189214300e-01 3.771172374107065295e+00 -7.511790117189214300e-01 -9.007394202504970693e+00
-2.522185753538181974e+00 4.286139856884848776e+00 -4.020142047470767643e+00 4.286139856884848776e+00 5.047412232481157446e+00 -5.656304867194020147e+00 -4.020142047470767643e+00 -5.656304867194020147e+00 4.600324577198827924e+00
5.288855943243385704e-01 2.431866982153936707e+00 -2.627802529573502799e+00 2.431866982153936707e+00 9.506403697376660134e+00 -4.770890195957937507e+00 -2.627802529573502799e+00 -4.770890195957937507e+00 7.329212817237161559e+00
-4.030630756546613735e-01 2.865119201171318242e+00 4.092735883716237311e+00 2.865119201171318242e+00 1.137390177721653517e+00 9.051762260687371553e-01 4.092735883716237311e+00 9.051762260687371553e-01 3.886642500207632800e+00
-3.114613894055539678e+00 -4.327719637519043872e+00 -1.338176604531265967e-02 -4.327719637519043872e+00 -6.080343870343449808e+00 -4.236024721474384025e-01 -1.338176604531265967e-02 -4.236024721474384025e-01 -3.744529927303462902e+00
-2.264862132875324452e+00 -4.923957578947057989e+00 1.901576348004242911e+00 -4.923957578947057989e+00 2.629761120241494776e+00 5.447710655685958914e-01 1.901576348004242911e+00 5.447710655685958914e-01 -9.542528508550798705e+00
-4.271996479172561756e+00 3.379684046291046157e-02 -5.536028190685073902e+00 3.379684046291046157e-02 8.755990276556538277e+00 6.786522779428016072e+00 -5.536028190685073902e+00 6.786522779428016072e+00 6.013849552959068312e+00
4.256875801148687355e-01 1.962328542569353962e+00 1.640534363734435175e+00 1.962328542569353962e+00 -8.464268694952001848e-01 1.788589707009230256e+00 1.640534363734435175e+00 1.788589707009230256e+00 -9.701444899312984260e-01
1.810109504075529685e+01 -3.296393153618219163e+00 5.126999448302072437e+00 -3.296393153618219163e+00 2.630673587550608872e+00 1.886013679275269306e+00 5.126999448302072437e+00 1.886013679275269306e+00 1.074278982523775028e+01
-6.225211526831417430e+00 2.215316456127727207e+00 1.574741174107530117e+00 2.215316456127727207e+00 6.041570329120678373e+00 6.565464393319650149e+00 1.574741174107530117e+00 6.565464393319650149e+00 -5.578641050278713820e+00
7.612398451794404330e-01 6.062309663795635295e-01 -8.086634958060535672e-01 6.062309663795635295e-01 -4.478171022838312032e-01 -1.280746246312758130e+00 -8.086634958060535672e-01 -1.280746246312758130e+00 -4.721986430785213074e+00
-4.704109952737331568e+00 -9.062994264309813808e-01 -5.333451478969618575e-01 -9.062994264309813808e-01 -1.138278356318696005e+01 2.450562808286045779e+00 -5.333451478969618575e-01 2.450562808286045779e+00 2.023506208172393794e+00
-6.298875790938819108e+00 -1.729912826539604209e+00 -8.955382927343422672e-01 -1.729912826539604209e+00 6.565298055872323957e+00 5.545783539304459886e+00 -8.955382927343422672e-01 5.545783539304459886e+00 3.269114552739733615e+00
-7.421489123037509295e+00 -2.630187953160568193e-01 4.334664689155074413e+00 -2.630187953160568193e-01 -1.769334096107939791e+00 8.004987513040753289e-01 4.334664689155074413e+00 8.004987513040753289e-01 -3.537713797281388572e+00
-7.156162895734244911e-01 -3.740141674471401334e+00 -4.945542344534530343e+00 -3.740141674471401334e+00 -2.488998455698648637e+00 -2.951228877030708908e+00 -4.945542344534530343e+00 -2.951228877030708908e+00 2.176369449191252858e+00
1.288780667362206600e+01 -2.040429225076398456e+00 8.729293559157814686e-01 -2.040429225076398456e+00 -2.585012929073408072e-01 4.179722942208242031e+00 8.729293559157814686e-01 4.179722942208242031e+00 -2.918009310182848370e+00
1.317098933798905191e+00 -3.183142174545371628e+00 2.758751479698956288e+00 -3.183142174545371628e+00 2.625305506798692790e+00 3.972321531867273769e+00 2.758751479698956288e+00 3.972321531867273769e+00 4.480175259004156807e+00
1.143161881641036004e+01 7.842834949466430672e-01 -4.034915056014435564e+00 7.842834949466430672e-01 3.511676908690852805e+00 -3.459832109667022593e+00 -4.034915056014435564e+00 -3.459832109667022593e+00 -8.464954324227347726e+00
-1.180508968671650827e+01 1.556429168792830886e+00 2.933219893971652947e+00 1.556429168792830886e+00 -3.964643654011998475e+00 1.910506539292182060e+00 2.933219893971652947e+00 1.910506539292182060e+00 1.426550586208306104e+00
-6.491908632871014717e+00 -2.226224238400232647e+00 -3.329927958448071657e+00 -2.226224238400232647e+00 6.977431844960377383e+00 -8.730994413313348801e+00 -3.329927958448071657e+00 -8.730994413313348801e+00 3.672072149039913302e+00
-2.788528237390366371e+00 -2.230103845611111080e-01 2.410016192260620915e+00 -2.230103845611111080e-01 -1.454312543042986849e+00 -1.771371950421693375e+00 2.410016192260620915e+00 -1.771371950421693375e+00 -8.438710289776514273e+00
-3.712841093256003422e+00 -1.687330254315753786e+00 -1.957520203341452270e+00 -1.687330254315753786e+00 -1.052945195339034257e+01 1.615547093368276288e+00 -1.957520203341452270e+00 1.615547093368276288e+00 -2.034497475092556518e-01
-5.399173306413444173e+00 1.259509305334670648e+00 -4.019608587753550566e+00 1.259509305334670648e+00 8.349065569753419069e+00 7.640165852029021210e+00 -4.019608587753550566e+00 7.640165852029021210e+00 3.930143229847916864e+00
4.767314140649342669e+00 9.883162412238238881e-01 4.464727320324426429e+00 9.883162412238238881e-01 5.357219638989203503e+00 -2.762145745167814970e-01 4.464727320324426429e+00 -2.762145745167814970e-01 4.403715986949414685e+00
-8.253418202305335960e-01 -4.071971653592150631e+00 -4.960131937318320028e-01 -4.071971653592150631e+00 -3.534366276765688042e+00 -1.354746381694268642e+00 -4.960131937318320028e-01 -1.354746381694268642e+00 -4.913671541119917663e+00
4.212996544281370603e+00 -1.708489271063104109e+00 1.321016023099930825e+00 -1.708489271063104109e+00 7.451000062816971692e+00 -3.179453596296522910e+00 1.321016023099930825e+00 -3.179453596296522910e+00 3.727612955046772480e+00
8.677125243286857526e+00 3.525066894965986908e+00 8.239671159077414098e-01 3.525066894965986908e+00 -5.355615101421814295e+00 3.988256013034147118e-01 8.239671159077414098e-01 3.988256013034147118e-01 -4.446310571747181584e+00
-5.415970239854727808e+00 -2.515072617607001071e+00 -2.834865593615816248e-01 -2.515072617607001071e+00 9.988317585723087699e-01 4.003006417363855540e+00 -2.834865593615816248e-01 4.003006417363855540e+00 4.741272441890359346e+00
-9.882730720344822473e+00 -1.973965647031142856e+00 6.269622354546926513e-01 -1.973965647031142856e+00 1.094311791341760376e+01 -4.359458694667601164e-01 6.269622354546926513e-01 -4.359458694667601164e-01 -2.020430635878237347e+00
2.959857831003904760e+00 -1.335903814735554196e+00 4.116962239082639918e+00 -1.335903814735554196e+00 -3.220962497082344278e+00 -1.655936667584670952e-01 4.116962239082639918e+00 -1.655936667584670952e-01 -1.039806365452199621e+00
4.864324113466749644e+00 1.077568216432004622e+00 2.872233099713763949e+00 1.077568216432004622e+00 3.099832583946222908e-02 1.311519985666828036e+00 2.872233099713763949e+00 1.311519985666828036e+00 2.317037203216489871e-01
-8.875956020529082835e+00 -4.163555671133730485e+00 -2.705389279768860789e+00 -4.163555671133730485e+00 6.751958199093074597e+00 -1.404719027874255621e+00 -2.705389279768860789e+00 -1.404719027874255621e+00 -7.689436661467246026e+00
-7.638152118508934940e+00 -1.735852788089355725e+00 -9.368395886807620032e-01 -1.735852788089355725e+00 3.747347247753165522e+00 -4.257901332342878931e+00 -9.368395886807620032e-01 -4.257901332342878931e+00 -2.475688051963892633e+00
-3.932324825448407335e+00 1.194065928172773017e+00 -2.793261982203714133e+00 1.194065928172773017e+00 -4.229995326779724785e+00 5.303444479557553493e+00 -2.793261982203714133e+00 5.303444479557553493e+00 -6.843416148294714674e+00
-8.982693256427817241e-01 1.266181068731354387e+00 -3.267078690604041213e+00 1.266181068731354387e+00 -4.013411207701441441e+00 4.915534300209648322e+00 -3.267078690604041213e+00 4.915534300209648322e+00 1.309761432326535413e+00
3.183301145787381436e+00 3.668795773748577460e+00 -5.685520738813818475e+00 3.668795773748577460e+00 4.716820551148102503e+00 -5.018106598473225155e+00 -5.685520738813818475e+00 -5.018106598473225155e+00 6.211358799025613386e+00
7.317681526627258792e-01 1.424250287138563387e+00 -1.557578312425847988e+00 1.424250287138563387e+00 -2.572716690441085419e+00 7.696260888544239620e+00 -1.557578312425847988e+00 7.696260888544239620e+00 -3.715215318559388802e+00
-3.072450236935288626e+00 4.426249243852004689e+00 2.797060476966115594e+00 4.426249243852004689e+00 -3.911939483575896048e+00 -9.633119224653605706e-01 2.797060476966115594e+00 -9.633119224653605706e-01 4.341602291080539189e+00
8.750656979322565476e+00 -8.624930505305531403e-01 -2.184433473085973798e+00 -8.624930505305531403e-01 5.180571361163953448e+00 -4.057919600042607655e+00 -2.184433473085973798e+00 -4.057919600042607655e+00 1.943071979918700842e+00
-3.683301369954039117e+00 -3.258744217009368782e+00 -1.146591448719271433e+00 -3.258744217009368782e+00 8.792972103217117086e-01 5.400754618743899726e+00 -1.146591448719271433e+00 5.400754618743899726e+00 1.850343271723614569e-01
6.120281840163428910e+00 -7.326609923108186706e+00 -8.243028769789233934e+00 -7.326609923108186706e+00 1.683646460068774076e+01 6.749047513133007214e+00 -8.243028769789233934e+00 6.749047513133007214e+00 3.494027493924696692e+00
-9.426182471037298782e-01 6.390466370366798543e-01 -4.521521271758228266e+00 6.390466370366798543e-01 -2.684357302679101664e+00 3.543928835937615318e+00 -4.521521271758228266e+00 3.543928835937615318e+00 1.676478360778484999e+00
-3.361269983270441575e+00 1.649798512228161096e+00 3.018502116509901523e+00 1.649798512228161096e+00 -4.822833272140005789e+00 8.610831589217565751e-01 3.018502116509901523e+00 8.610831589217565751e-01 -8.099471893915084486e-01
-4.037355342536016245e+00 -4.451693125623678027e-01 -2.053770381338414719e+00 -4.451693125623678027e-01 1.118726038475354301e+01 2.386379799380457190e+00 -2.053770381338414719e+00 2.386379799380457190e+00 2.459844710410111546e+00
-2.317579928145288015e+00 9.041359668837123387e-01 2.227964294342291041e+00 9.041359668837123387e-01 2.089150354777674079e-01 4.629550414225074739e+00 2.227964294342291041e+00 4.629550414225074739e+00 -1.010857577335553437e+01
5.848558703576494544e+00 -1.031030383401725148e+00 -1.237113910682130502e+00 -1.031030383401725148e+00 -7.045030776896806790e-01 -4.816191417629972493e-02 -1.237113910682130502e+00 -4.816191417629972493e-02 -3.949165553911178073e+00
-1.614427323025556804e+00 -1.527104931483508343e+00 -3.575859828980653798e+00 -1.527104931483508343e+00 -4.137912849694518336e+00 6.176361704838478905e-01 -3.575859828980653798e+00 6.176361704838478905e-01 5.101543600384815802e-01
6.316242629789470264e-01 3.579276728770937943e+00 -2.986654673088405598e+00 3.579276728770937943e+00 2.321751014728945073e+00 -1.680059993832714982e+00 -2.986654673088405598e+00 -1.680059993832714982e+00 2.418603385957842189e+00
3.273654688616201902e+00 -5.627168350981453848e+00 -1.620555312654373692e+00 -5.627168350981453848e+00 1.086064695348090936e+01 -2.169307312042217717e+00 -1.620555312654373692e+00 -2.169307312042217717e+00 4.823777522470329870e+00
-5.012815329943035358e+00 -5.594982804647947727e-01 1.602650487452562222e+00 -5.594982804647947727e-01 6.808502725271058154e+00 1.130454248697106090e+00 1.602650487452562222e+00 1.130454248697106090e+00 -1.610241077379117147e+00
-5.649127287731877445e+00 -6.684392342884016180e+00 3.211080875236309140e+00 -6.684392342884016180e+00 7.877224221569316676e+00 -1.653652008796054229e+00 3.211080875236309140e+00 -1.653652008796054229e+00 7.495047883839056624e+00
4.868111325447779802e-01 -4.529571100316639232e+00 1.401152566403880861e+00 -4.529571100316639232e+00 1.070622824715978361e+01 -3.036399966879294698e+00 1.401152566403880861e+00 -3.036399966879294698e+00 6.739280666044892953e+00
-4.984352448510473543e+00 1.163965859615949894e+00 4.173308486634081937e+00 1.163965859615949894e+00 -9.647955497361460075e-01 2.190743331192344101e+00 4.173308486634081937e+00 2.190743331192344101e+00 -5.901507119182629602e-01
-2.360155468627513020e+00 6.456320212361394972e-01 8.438965645840189600e-01 6.456320212361394972e-01 -6.197205068668729666e-01 6.040181291590974721e-01 8.438965645840189600e-01 6.040181291590974721e-01 -2.643938373999719538e+00
4.916199522017961066e+00 -2.564335547437719964e-01 4.098203405818851230e+00 -2.564335547437719964e-01 3.279769905320630397e+00 3.281995705420555520e+00 4.098203405818851230e+00 3.281995705420555520e+00 3.947296102974148013e+00
6.754364750205636092e+00 4.084634854202901622e+00 -3.109688383435357473e+00 4.084634854202901622e+00 6.649011299406413222e+00 -4.833223008812653099e+00 -3.109688383435357473e+00 -4.833223008812653099e+00 8.034428394705542820e-01
1.119777857920532149e+01 1.962773680200215365e+00 -9.168584357409986785e-01 1.962773680200215365e+00 9.187084139510607983e+00 7.061536467696902797e-01 -9.168584357409986785e-01 7.061536467696902797e-01 6.245819542778396460e+00
5.167011566487535568e+00 -2.561555295161112022e-01 -3.417745980174557996e+00 -2.561555295161112022e-01 5.755543517855541857e+00 2.353290854917778341e-01 -3.417745980174557996e+00 2.353290854917778341e-01 7.256040149892815094e+00
1.186783245490222960e+00 6.502185955119135663e+00 -4.912700024668305993e-02 6.502185955119135663e+00 -2.272491126510242321e+00 1.037697670680834294e+00 -4.912700024668305993e-02 1.037697670680834294e+00 4.690164940995247278e+00
-7.008816317759715808e+00 2.868114988490080286e+00 -2.261621362189594753e-01 2.868114988490080286e+00 2.649550824712848307e+00 5.843569848521979360e+00 -2.261621362189594753e-01 5.843569848521979360e+00 1.561719379034295807e+00
-6.963280616509933019e+00 -1.019281194949966274e+00 1.132269438557434622e-02 -1.019281194949966274e+00 2.023856378951849333e+00 1.218585523988068742e+00 1.132269438557434622e-02 1.218585523988068742e+00 -3.857240338051777684e+00
4.370800013690683272e+00 -5.381902410375180246e+00 2.693523552068413651e-01 -5.381902410375180246e+00 -2.927054382529909127e+00 -2.072461223338132097e+00 2.693523552068413651e-01 -2.072461223338132097e+00 2.740410420214324017e+00
7.905119134684810867e+00 -2.650326398210832046e+00 -3.308326631127390449e+00 -2.650326398210832046e+00 3.100518160190953054e+00 3.480446835888050261e-01 -3.308326631127390449e+00 3.480446835888050261e-01 -2.780263234729273503e+00
9.871057225109474587e+00 -4.612447274611106707e+00 9.047916330285248054e-02 -4.612447274611106707e+00 -5.899729205638719609e-01 3.007732246669766241e+00 9.047916330285248054e-02 3.007732246669766241e+00 -5.581105978490712438e+00
3.061326611405545073e+00 5.145486707276080152e-01 7.557306428292559497e-01 5.145486707276080152e-01 1.201282974314667795e+00 -3.454328839659946748e+00 7.557306428292559497e-01 -3.454328839659946748e+00 -7.588880724324794436e+00
1.045006394946746475e+01 8.316600703733200151e-01 -1.176325792610869669e+00 8.316600703733200151e-01 1.286059997782887265e+01 9.662068617335239917e-01 -1.176325792610869669e+00 9.662068617335239917e-01 -1.134286969073974527e+00
1.999208072672984393e+00 2.038660336679909424e+00 -7.003788457742237128e-01 2.038660336679909424e+00 5.395410697866063643e+00 -1.726997566990329691e+00 -7.003788457742237128e-01 -1.726997566990329691e+00 2.470308568776192093e+00
-2.833108310471670332e+00 -1.791345475528224540e+00 4.059094689079506324e+00 -1.791345475528224540e+00 7.120511633990742606e-01 5.663013097367657345e-01 4.059094689079506324e+00 5.663013097367657345e-01 -2.095449896529713918e+00
4.458694635739280265e+00 2.328067076357047238e+00 -1.680645728821542395e+00 2.328067076357047238e+00 8.351787544128697505e+00 3.290415198617042125e-01 -1.680645728821542395e+00 3.290415198617042125e-01 3.957136086805796427e-01
2.208339674968860855e+00 -1.503859839948678445e+00 -1.948226705243757184e+00 -1.503859839948678445e+00 1.106336512677297002e+01 1.144389190994098637e+00 -1.948226705243757184e+00 1.144389190994098637e+00 -4.050430844344113553e-03
-1.147291302449265693e+01 -3.240330433459258863e+00 2.672997789780220401e+00 -3.240330433459258863e+00 5.396219909480072019e+00 -5.284477999852206231e-01 2.672997789780220401e+00 -5.284477999852206231e-01 -6.881738841498808767e+00
-5.988212075203644069e+00 2.299262119429182682e+00 8.445485761063360464e-01 2.299262119429182682e+00 1.551601717930141344e+00 -1.578248219759530002e+00 8.445485761063360464e-01 -1.578248219759530002e+00 -5.711675735290334011e+00
9.308875061645537130e+00 -1.536907826277586375e+00 -1.891335701261704472e+00 -1.536907826277586375e+00 7.355496144365252675e+00 -1.532969544725949707e+00 -1.891335701261704472e+00 -1.532969544725949707e+00 -4.498582876424510602e+00
-3.200605319310473096e+00 -4.377993884873839114e+00 -5.491924916820033253e+00 -4.377993884873839114e+00 1.014018925427790130e+01 6.231843947412341933e+00 -5.491924916820033253e+00 6.231843947412341933e+00 -1.264302349230450151e+00
-6.133464305944189121e+00 -3.392571474168538881e+00 1.715226789796464368e+00 -3.392571474168538881e+00 -2.637911597568111333e+00 2.691070712437865442e+00 1.715226789796464368e+00 2.691070712437865442e+00 -2.423734133507885247e+00
-4.335028065151979249e+00 -2.048048946529519299e+00 1.097203643441478471e+00 -2.048048946529519299e+00 -8.035360811383247537e+00 4.406501455365907205e+00 1.097203643441478471e+00 4.406501455365907205e+00 2.626828556315364160e+00
-6.716926678955359442e+00 3.508583872435449891e+00 -4.907653724669959416e+00 3.508583872435449891e+00 -4.014378021614445124e+00 -1.912144261942388512e+00 -4.907653724669959416e+00 -1.912144261942388512e+00 6.392893766227200736e+00