-4.320510000000000184e-01 -1.952280000000000126e-01 -1.842610000000000081e-01 2.929590000000000249e-01 1.286210000000000131e-01 2.006799999999999903e-02 -3.632650000000000046e-01 1.387519999999999865e-01 7.430940000000000323e-01 -2.636830000000000007e-01 -6.435899999999999954e-01 -6.571399999999999464e-02 -5.197469999999999590e-01 -5.366440000000000099e-01 1.949220000000000119e-01 -4.821099999999999830e-01 -7.395929999999999449e-01 2.749969999999999914e-01 5.244659999999999878e-01 1.202321999999999891e+00 -1.646560000000000024e+00 2.483160000000000089e-01 -2.365009999999999890e-01 -1.961600000000000149e-02 7.900949999999999918e-01 -2.128879999999999939e-01 -7.570459999999999967e-01 -3.972100000000000075e-01 4.726219999999999866e-01 -3.190600000000000103e-01 2.517400000000000193e-01 -5.149209999999999621e-01 -4.930990000000000095e-01 2.191120000000000012e-01 6.922390000000000487e-01 -3.921160000000000201e-01 -3.633000000000000118e-02 1.469290000000000040e-01 1.030490000000000017e-01 2.988339999999999885e-01 3.663210000000000077e-01 -2.335329999999999906e-01 8.216700000000000392e-02 1.878900000000000015e-02 1.289059999999999928e-01 -6.174099999999999727e-02 7.298499999999999432e-02 4.097569999999999824e-01 -3.184199999999999808e-01 5.284649999999999626e-01 7.189900000000000457e-02 5.557929999999999815e-01 -2.229700000000000085e-02 -2.726879999999999860e-01 2.370579999999999909e-01 4.712899999999999867e-01 1.078101999999999894e+00 -6.259839999999999849e-01 -1.137674000000000074e+00 1.358899999999999997e+00
4.367650000000000143e-01 7.602970000000000006e-01 7.585460000000000536e-01 6.397270000000000456e-01 7.386690000000000200e-01 2.983390000000000208e-01 -1.355280000000000096e-01 -2.913470000000000226e-01 5.076950000000000074e-01 -7.196949999999999736e-01 1.054540000000000061e-01 -1.446459999999999968e-01 5.708689999999999598e-01 8.694309999999999539e-01 7.342359999999999998e-01 -7.091000000000000081e-03 -6.436880000000000379e-01 -1.979849999999999943e-01 2.533799999999999941e-01 -2.998899999999999830e-02 3.465159999999999907e-01 -6.838500000000000134e-02 -9.531100000000000683e-02 -8.876479999999999926e-01 -3.922990000000000088e-01 -6.731759999999999966e-01 -1.915900000000000103e-01 -2.736649999999999916e-01 1.274609999999999910e-01 -4.014949999999999908e-01 1.995439999999999992e-01 -5.301310000000000189e-01 -5.872200000000000336e-02 -7.730000000000000326e-04 -1.692339999999999955e-01 5.473550000000000360e-01 2.269059999999999966e-01 5.029850000000000154e-01 -5.007470000000000532e-01 -3.351300000000000112e-02 -4.879129999999999856e-01 -2.859729999999999772e-01 -9.161639999999999784e-01 -3.985750000000000126e-01 -3.817740000000000022e-01 1.269659999999999955e-01 -3.025399999999999964e-02 -8.873999999999999944e-02 -5.663770000000000193e-01 2.454459999999999975e-01 -6.022799999999999682e-02 1.768869999999999887e-01 -1.048079999999999984e-01 -4.482229999999999825e-01 -4.130199999999999844e-02 2.938399999999999901e-01 -2.030699999999999866e-02 5.237479999999999913e-01 -1.891559999999999908e-01 4.753919999999999813e-01
2.665489999999999804e-01 2.843100000000000072e-01 -9.041899999999999937e-02 3.006530000000000036e-01 9.082099999999999895e-02 4.043289999999999940e-01 3.961009999999999809e-01 3.571030000000000038e-01 1.466010000000000091e-01 -5.577959999999999585e-01 3.175300000000000344e-02 -4.337619999999999809e-01 -3.512560000000000127e-01 5.248479999999999812e-01 -4.892150000000000110e-01 -6.740270000000000428e-01 -2.766560000000000130e-01 3.396699999999999720e-02 4.315470000000000139e-01 5.114300000000000096e-02 7.413200000000000345e-02 4.701600000000000223e-02 1.427299999999999958e-01 -8.436550000000000438e-01 -2.746339999999999892e-01 -2.811730000000000063e-01 1.674450000000000105e-01 -1.806679999999999953e-01 -2.775460000000000149e-01 -1.830080000000000040e-01 -4.069550000000000112e-01 -2.237870000000000137e-01 -1.625610000000000110e-01 3.816479999999999873e-01 6.788800000000000390e-02 2.568449999999999900e-01 3.040539999999999909e-01 -3.437999999999999945e-01 -3.048549999999999871e-01 4.940539999999999932e-01 -9.284799999999999998e-02 -3.209359999999999991e-01 -3.384260000000000046e-01 -3.758659999999999779e-01 3.464400000000000118e-02 2.037609999999999977e-01 6.098900000000000154e-02 5.682420000000000249e-01 -2.564119999999999733e-01 4.712080000000000157e-01 5.311970000000000303e-01 2.090900000000000050e-02 1.679400000000000059e-01 -2.772249999999999992e-01 -1.108490000000000031e-01 -2.168099999999999888e-02 2.382499999999999896e-01 3.047300000000000009e-01 -3.573770000000000002e-01 6.499819999999999487e-01
-5.150090000000000501e-01 -3.963740000000000041e-01 2.650129999999999986e-01 -1.681429999999999869e-01 -2.721779999999999755e-01 -3.855799999999999783e-01 3.131249999999999867e-01 -6.112290000000000223e-01 3.033000000000000106e-03 -6.935620000000000118e-01 -5.253100000000000547e-01 6.120710000000000317e-01 -3.162739999999999996e-01 -2.247460000000000013e-01 -1.367190000000000072e-01 -6.983700000000000463e-01 -8.022040000000000282e-01 -1.180210000000000009e-01 -1.432690000000000075e-01 -4.950220000000000176e-01 9.089589999999999614e-01 5.142000000000000043e-02 1.792849999999999999e-01 -9.078749999999999876e-01 -5.028500000000000331e-02 8.681710000000000260e-01 -3.601599999999999802e-01 8.469799999999999551e-01 -1.295699999999999977e-02 -2.112459999999999893e-01 7.511000000000000315e-03 1.687269999999999881e-01 4.391249999999999876e-01 3.183219999999999938e-01 7.508749999999999591e-01 2.401399999999999924e-01 6.562500000000000000e-01 1.105310000000000042e-01 -1.934869999999999923e-01 -3.751800000000000274e-02 -1.850130000000000108e-01 -2.243080000000000074e-01 5.725609999999999866e-01 4.343219999999999859e-01 -1.711880000000000068e-01 -2.858890000000000042e-01 4.348049999999999971e-01 -5.230890000000000262e-01 -7.360379999999999701e-01 5.088909999999999823e-01 3.444590000000000152e-01 2.230789999999999995e-01 7.597099999999999687e-02 -5.187610000000000277e-01 7.030999999999999750e-02 4.986149999999999749e-01 3.490949999999999886e-01 5.847999999999999865e-01 -5.051619999999999999e-01 5.885369999999999768e-01
9.765100000000000169e-02 -2.862879999999999869e-01 -1.895179999999999920e-01 -3.773699999999999971e-02 -1.603900000000000117e-02 1.481700000000000031e-02 -4.622359999999999802e-01 -3.889020000000000254e-01 -1.059869999999999979e-01 -4.899169999999999914e-01 -8.228199999999999403e-02 1.225969999999999976e-01 9.171700000000000685e-02 -5.559439999999999937e-01 2.684050000000000047e-01 -1.065636000000000028e+00 -2.283999999999999919e-02 6.200360000000000316e-01 -2.605540000000000078e-01 3.414650000000000185e-01 1.609669999999999990e-01 -2.431540000000000090e-01 5.845770000000000133e-01 -5.215349999999999708e-01 1.196720000000000006e-01 8.443900000000000017e-02 2.492749999999999966e-01 1.269210000000000060e-01 1.313060000000000060e-01 4.453659999999999841e-01 1.743099999999999927e-01 2.263550000000000006e-01 -2.289720000000000089e-01 2.359410000000000118e-01 2.715000000000000191e-01 -4.396100000000000008e-02 -4.583360000000000212e-01 -2.118710000000000038e-01 4.818339999999999845e-01 2.214790000000000092e-01 -5.416769999999999641e-01 -1.278799999999999937e-01 8.934060000000000334e-01 -1.875739999999999907e-01 -5.550800000000000178e-02 6.470810000000000173e-01 3.548000000000000043e-01 -3.409809999999999786e-01 6.905999999999999812e-03 5.516579999999999817e-01 2.330780000000000074e-01 6.193009999999999904e-01 2.295530000000000070e-01 -6.473649999999999682e-01 -2.364099999999999882e-02 -6.293100000000000360e-01 -8.910500000000000087e-01 -1.931720000000000104e-01 1.470740000000000103e-01 5.563810000000000144e-01
1.740200000000000080e-01 3.962530000000000219e-01 1.375339999999999896e-01 4.920829999999999926e-01 -1.655540000000000067e-01 -7.244920000000000249e-01 -3.198250000000000259e-01 -6.472040000000000015e-01 -1.890159999999999896e-01 -7.031849999999999490e-01 4.010059999999999736e-01 6.528540000000000454e-01 6.892099999999999616e-02 -2.093679999999999986e-01 4.334830000000000072e-01 -2.547070000000000167e-01 4.164289999999999936e-01 9.998400000000000343e-02 -8.097100000000000131e-02 -7.550219999999999709e-01 -1.588880000000000015e-01 -2.623260000000000036e-01 -8.074399999999999633e-02 -1.129207000000000072e+00 -3.222999999999999754e-01 -2.472699999999999898e-02 1.926699999999999940e-02 5.523540000000000116e-01 2.810059999999999780e-01 -1.336779999999999913e-01 4.902369999999999783e-01 -3.437799999999999884e-02 3.344989999999999908e-01 -3.995909999999999740e-01 1.144590000000000052e-01 4.669639999999999902e-01 -3.013410000000000255e-01 -2.944209999999999883e-01 -2.064070000000000071e-01 2.915280000000000094e-01 -5.400000000000000286e-03 -6.078800000000000175e-02 -1.140089999999999992e-01 3.429019999999999846e-01 -1.294059999999999933e-01 4.239049999999999763e-01 8.774899999999999367e-02 -5.601249999999999840e-01 -4.935329999999999995e-01 -6.511999999999999733e-02 -4.737950000000000217e-01 3.351290000000000102e-01 1.547939999999999872e-01 8.393310000000000493e-01 -3.683460000000000067e-01 1.919180000000000053e-01 -2.211279999999999912e-01 7.919570000000000221e-01 -1.045770000000000033e-01 1.003014000000000072e+00
-8.636230000000000295e-01 -4.212359999999999993e-01 1.044170999999999960e+00 -1.357510000000000105e-01 -1.553430000000000089e+00 8.083150000000000057e-01 -9.746040000000000258e-01 1.003516999999999992e+00 -2.795949999999999824e-01 -5.187699999999999950e-02 -1.776985000000000037e+00 7.373359999999999914e-01 -5.930720000000000436e-01 -1.904969999999999997e-01 -7.689190000000000191e-01 3.644599999999999923e-02 4.365499999999999936e-02 -6.134220000000000228e-01 2.317120000000000013e-01 4.251659999999999884e-01 8.855999999999999983e-02 -2.027401999999999926e+00 1.745570999999999984e+00 1.058280000000000054e-01 8.847450000000000037e-01 5.182480000000000420e-01 -1.276453000000000060e+00 4.359850000000000114e-01 -3.893599999999999839e-02 5.180019999999999625e-01 7.520310000000000050e-01 3.372339999999999782e-01 -5.764679999999999804e-01 -1.802489999999999926e-01 1.747514000000000012e+00 -4.547260000000000191e-01 3.096470000000000056e-01 -1.637190000000000034e-01 5.469700000000000256e-02 6.594999999999999474e-02 1.070509999999999934e-01 -5.509079999999999533e-01 8.325399999999999467e-02 -2.177779999999999994e-01 4.867139999999999800e-01 1.388570000000000082e-01 -1.529530000000000056e-01 4.598740000000000050e-01 -3.075539999999999941e-01 -1.872510000000000008e-01 5.078240000000000531e-01 2.250868000000000091e+00 -1.146061999999999914e+00 -5.560279999999999667e-01 -3.261890000000000067e-01 9.453599999999999504e-02 3.283980000000000232e-01 2.708269999999999844e-01 -1.736449999999999938e-01 -6.319700000000000317e-02
5.199399999999999855e-02 2.865269999999999762e-01 1.541900000000000041e-02 1.608390000000000097e-01 3.011099999999999888e-02 -4.230979999999999741e-01 -4.410999999999999921e-01 -4.775190000000000268e-01 4.454659999999999731e-01 4.849400000000000238e-02 1.155219999999999997e-01 6.818239999999999856e-01 -1.231498999999999899e+00 -2.546109999999999762e-01 2.973149999999999959e-01 -4.064849999999999852e-01 -7.402370000000000339e-01 -3.743699999999999806e-02 7.794429999999999970e-01 4.353580000000000227e-01 6.413929999999999909e-01 2.217429999999999957e-01 2.167300000000000129e-02 -8.159830000000000139e-01 7.313200000000000256e-02 1.002450000000000008e-01 -1.881100000000000133e-02 4.211710000000000176e-01 4.276190000000000269e-01 -2.424250000000000016e-01 2.273769999999999958e-01 -5.103699999999999903e-02 1.442340000000000011e-01 -4.979270000000000085e-01 -4.382610000000000117e-01 2.198120000000000074e-01 3.790890000000000093e-01 -4.351619999999999933e-01 -8.201580000000000537e-01 4.273770000000000069e-01 5.182959999999999789e-01 -3.609200000000000186e-01 2.707120000000000082e-01 2.791660000000000252e-01 3.270800000000000096e-02 1.749989999999999879e-01 -1.681989999999999874e-01 -2.153420000000000056e-01 -4.722669999999999924e-01 1.207720000000000043e-01 7.505000000000000560e-02 -6.205220000000000180e-01 4.728399999999999964e-02 -3.406179999999999763e-01 -1.505610000000000004e-01 6.906550000000000189e-01 4.190639999999999921e-01 5.839900000000000091e-01 -5.082029999999999603e-01 3.025089999999999724e-01
4.629999999999999784e-04 -4.864600000000000174e-02 -4.272980000000000111e-01 -7.984560000000000546e-01 4.401860000000000217e-01 -1.056379999999999958e-01 5.227309999999999457e-01 1.924720000000000042e-01 -4.954990000000000228e-01 3.203779999999999961e-01 6.352999999999999758e-01 -2.676069999999999838e-01 -1.967760000000000065e-01 3.912899999999999712e-02 6.871319999999999650e-01 -2.220890000000000086e-01 -8.484969999999999457e-01 -3.009109999999999840e-01 7.954999999999999849e-01 7.602700000000000014e-01 2.799150000000000249e-01 -2.504500000000000129e-02 -1.576919999999999988e-01 -8.207520000000000371e-01 -2.506360000000000254e-01 -2.960189999999999766e-01 3.559300000000000241e-01 7.450800000000000478e-02 -1.969800000000000023e-02 1.341040000000000010e-01 -2.926710000000000145e-01 -1.618449999999999889e-01 -1.002780000000000060e-01 3.850660000000000194e-01 -4.405660000000000132e-01 -3.966279999999999806e-01 -2.812620000000000120e-01 -1.493319999999999925e-01 -1.353099999999999963e-02 -2.285560000000000092e-01 -3.847699999999999732e-02 3.224509999999999876e-01 -1.268799999999999963e-02 2.517949999999999910e-01 5.380570000000000075e-01 1.655429999999999957e-01 -3.521850000000000258e-01 6.427829999999999933e-01 -5.517530000000000490e-01 -7.894199999999999828e-02 -6.549049999999999594e-01 -2.472949999999999871e-01 2.258219999999999950e-01 -3.808690000000000131e-01 4.871770000000000267e-01 -3.393800000000000289e-02 5.749100000000000044e-02 3.558609999999999829e-01 8.086300000000000432e-02 9.460560000000000080e-01
9.226800000000000279e-02 -8.722419999999999618e-01 2.716259999999999786e-01 7.085960000000000036e-01 5.703259999999999996e-01 2.461419999999999997e-01 6.407000000000000368e-03 -4.828799999999999759e-01 -2.677809999999999913e-01 -1.176579999999999987e-01 3.410619999999999763e-01 2.597400000000000056e-02 5.637500000000000150e-02 -6.001599999999999990e-02 1.466339999999999866e-01 -4.845599999999999907e-01 2.317770000000000108e-01 8.558999999999999941e-02 2.066230000000000011e-01 2.434929999999999872e-01 -2.654590000000000005e-01 2.168940000000000035e-01 -1.038489999999999969e-01 -9.265740000000000087e-01 -3.729310000000000125e-01 2.143510000000000137e-01 1.015989999999999949e-01 -5.425119999999999942e-01 -5.508150000000000546e-01 3.543500000000000122e-02 -2.027559999999999918e-01 5.430949999999999944e-01 6.872499999999999443e-02 2.156180000000000041e-01 4.181460000000000177e-01 -3.342669999999999808e-01 -3.876450000000000173e-01 -1.414100000000000079e-01 -1.244900000000000000e-02 1.175270000000000065e-01 -1.551369999999999971e-01 4.999699999999999978e-02 1.338610000000000078e-01 1.565410000000000135e-01 -7.865999999999999728e-03 3.257289999999999908e-01 -3.527000000000000187e-03 -1.604250000000000120e-01 5.224999999999999784e-02 2.596840000000000259e-01 2.878080000000000083e-01 -1.637299999999999867e-02 -2.496100000000000055e-02 -2.740999999999999947e-03 -1.957359999999999933e-01 -3.886310000000000042e-01 8.974999999999999645e-02 1.880229999999999957e-01 -1.950089999999999879e-01 5.682800000000000074e-01
2.264299999999999924e-01 -2.162370000000000125e-01 -1.128590000000000010e-01 -2.046530000000000016e-01 3.167989999999999973e-01 6.199099999999999749e-02 -1.628999999999999893e-01 -3.118200000000000138e-02 5.043619999999999770e-01 4.073600000000000138e-02 1.026640000000000053e-01 4.972119999999999873e-01 -2.969080000000000052e-01 3.975380000000000025e-01 -1.873599999999999918e-02 4.472760000000000069e-01 1.639929999999999999e-01 4.493779999999999997e-01 -2.894749999999999823e-01 -1.097799999999999991e-02 1.381509999999999960e-01 -1.929379999999999984e-01 4.262170000000000125e-01 1.878509999999999902e-01 -1.900299999999999906e-02 6.631199999999999595e-02 5.461900000000000088e-02 5.713499999999999829e-02 6.293100000000000083e-02 -1.183099999999999985e-01 1.181650000000000061e-01 -3.389600000000000252e-02 -2.940299999999999858e-02 -1.637760000000000049e-01 -1.328159999999999896e-01 -6.408099999999999907e-02 -7.318800000000000305e-02 -2.791060000000000207e-01 2.971400000000000083e-02 1.133829999999999977e-01 1.817590000000000039e-01 -6.580300000000000038e-02 1.014049999999999951e-01 -5.641490000000000116e-01 -2.520839999999999748e-01 -3.136820000000000164e-01 -1.716840000000000033e-01 -7.520689999999999875e-01 -1.783099999999999963e-01 2.758769999999999833e-01 -1.633910000000000085e-01 7.566499999999999615e-02 -3.313610000000000166e-01 -4.536169999999999924e-01 4.267659999999999787e-01 3.043239999999999834e-01 4.007859999999999756e-01 2.878720000000000168e-01 -5.270059999999999745e-01 -2.937109999999999999e-01
3.188489999999999935e-01 4.064400000000000235e-01 -2.043000000000000094e-01 5.457450000000000356e-01 2.462900000000000159e-02 -1.616130000000000067e-01 1.267479999999999996e-01 9.030340000000000034e-01 -1.686570000000000014e-01 1.874760000000000038e-01 -4.825699999999999990e-01 -6.631799999999999917e-01 -4.604099999999999859e-02 -2.651249999999999996e-01 4.634380000000000166e-01 -5.042699999999999960e-02 4.365220000000000211e-01 5.026110000000000300e-01 5.898900000000000254e-01 -1.357569999999999888e-01 4.284529999999999728e-01 1.244347000000000092e+00 2.426319999999999866e-01 1.367009999999999892e-01 1.762999999999999984e-02 -8.003109999999999946e-01 4.429810000000000136e-01 -5.244910000000000405e-01 -4.625900000000000151e-02 7.059959999999999569e-01 1.459110000000000129e-01 -5.193130000000000246e-01 2.565990000000000215e-01 -7.171070000000000499e-01 6.686320000000000041e-01 2.665850000000000164e-01 -5.536609999999999587e-01 -2.037200000000000122e-01 4.651060000000000194e-01 -6.049909999999999455e-01 -7.890500000000000291e-02 -4.034570000000000101e-01 1.280519999999999992e-01 6.716050000000000075e-01 5.777689999999999770e-01 6.706630000000000091e-01 -4.721000000000000370e-03 2.389300000000000104e-02 -4.082060000000000133e-01 -2.616399999999999976e-02 -6.743069999999999897e-01 -1.140457000000000054e+00 -2.483609999999999984e-01 -8.302969999999999517e-01 6.054260000000000197e-01 -3.254540000000000211e-01 -4.676540000000000141e-01 -5.353560000000000541e-01 -2.168360000000000010e-01 -6.966689999999999827e-01
-1.767440000000000122e-01 -2.434729999999999950e-01 4.291530000000000067e-01 -2.437249999999999972e-01 -4.095200000000000229e-02 -5.796989999999999643e-01 5.347400000000000070e-02 3.575110000000000232e-01 -3.529320000000000235e-01 5.532299999999999995e-01 -2.771839999999999860e-01 3.924690000000000123e-01 -5.502669999999999506e-01 5.870600000000000124e-02 1.765140000000000042e-01 -3.693599999999999661e-02 -6.740400000000000558e-02 -5.366520000000000179e-01 7.398499999999999521e-02 8.028499999999999526e-02 -1.142119999999999941e-01 1.691070000000000073e-01 7.811700000000000588e-02 -9.851239999999999997e-01 -3.355639999999999734e-01 -1.945469999999999977e-01 -3.957979999999999832e-01 -2.889200000000000101e-02 3.470639999999999836e-01 4.129680000000000017e-01 -4.230899999999999939e-02 -3.959619999999999806e-01 1.793009999999999882e-01 -1.409189999999999887e-01 5.433590000000000364e-01 -3.609100000000000086e-01 1.545060000000000044e-01 -3.666440000000000254e-01 1.263700000000000101e-01 -2.033439999999999970e-01 9.445199999999999430e-02 1.143389999999999962e-01 5.288260000000000183e-01 -1.950280000000000069e-01 6.117820000000000480e-01 2.709320000000000062e-01 3.696130000000000249e-01 -2.379120000000000124e-01 3.817929999999999935e-01 -1.540499999999999925e-01 -4.825429999999999997e-01 -5.049559999999999604e-01 1.186009999999999981e-01 3.741120000000000001e-01 1.443850000000000133e-01 4.232199999999999851e-02 2.765810000000000213e-01 -6.658300000000000329e-02 -1.547870000000000079e-01 9.521929999999999561e-01
-3.706099999999999672e-02 8.075860000000000261e-01 -3.697050000000000058e-01 2.433980000000000032e-01 -2.420209999999999861e-01 5.626480000000000370e-01 2.870699999999999918e-01 6.432459999999999845e-01 -1.569869999999999877e-01 1.210320000000000007e-01 -2.506800000000000000e-02 -5.843720000000000026e-01 -7.108499999999999541e-02 7.076919999999999877e-01 5.760709999999999997e-01 -2.285399999999999932e-02 -1.711700000000000027e-02 -2.857480000000000020e-01 3.210279999999999800e-01 8.900500000000000078e-01 9.880300000000000193e-02 8.456900000000000528e-02 1.663800000000000001e-02 -9.542929999999999469e-01 -2.255810000000000037e-01 -4.551140000000000185e-01 -3.306859999999999800e-01 -4.086190000000000100e-01 -3.339829999999999743e-01 -8.116299999999999903e-02 2.732240000000000224e-01 1.495259999999999923e-01 -2.805320000000000036e-01 -7.820000000000000562e-02 -2.022970000000000046e-01 3.537279999999999869e-01 3.022800000000000140e-02 3.615570000000000173e-01 3.984219999999999984e-01 3.292780000000000151e-01 -7.852040000000000131e-01 -4.976499999999999813e-01 -1.408139999999999947e-01 -6.806630000000000180e-01 -5.023099999999999787e-02 -2.034700000000000120e-01 -5.094180000000000375e-01 1.009970999999999952e+00 -3.637679999999999803e-01 3.082389999999999852e-01 -3.349829999999999752e-01 -1.750490000000000101e-01 -4.126779999999999893e-01 1.580199999999999938e-01 -1.628610000000000058e-01 -1.997389999999999999e-01 1.560030000000000028e-01 1.995339999999999892e-01 -2.123099999999999987e-02 6.126840000000000064e-01
-2.118530000000000135e-01 -2.942830000000000168e-01 -1.455220000000000125e-01 -3.331680000000000197e-01 1.827270000000000005e-01 2.053999999999999836e-03 4.285900000000000126e-02 1.622770000000000046e-01 -5.880830000000000224e-01 5.677999999999999714e-02 4.907610000000000028e-01 -7.145500000000000462e-02 -1.009314999999999962e+00 2.829399999999999971e-02 7.032249999999999890e-01 -2.362420000000000075e-01 -5.326290000000000191e-01 9.788299999999999779e-02 9.743370000000000086e-01 2.683619999999999894e-01 1.894200000000000050e-01 -3.367699999999999860e-02 -3.605000000000000131e-03 -8.852870000000000461e-01 1.810680000000000067e-01 -2.997360000000000024e-01 7.700899999999999412e-02 -1.273459999999999870e-01 -1.912600000000000133e-01 -1.086079999999999962e-01 1.434509999999999952e-01 3.481700000000000073e-02 2.194069999999999909e-01 2.357100000000000029e-01 1.065929999999999933e-01 5.913299999999999806e-02 2.401459999999999984e-01 -2.219700000000000006e-01 -3.119540000000000091e-01 1.054879999999999984e-01 1.223769999999999997e-01 2.456999999999999983e-03 -4.283200000000000202e-02 2.628929999999999878e-01 8.148260000000000502e-01 -5.391200000000000159e-02 -3.088219999999999854e-01 3.359100000000000280e-02 -2.916139999999999843e-01 3.092340000000000089e-01 -3.979230000000000267e-01 -1.384839999999999960e-01 1.691360000000000086e-01 -5.210850000000000204e-01 2.348820000000000074e-01 -9.743799999999999684e-02 -1.651559999999999973e-01 2.637229999999999852e-01 -1.877270000000000050e-01 9.960670000000000357e-01
-2.354930000000000079e-01 4.225979999999999737e-01 -5.265060000000000295e-01 -1.499439999999999940e-01 -1.597399999999999862e-02 1.019309999999999938e-01 1.916150000000000075e-01 -4.486500000000000210e-02 1.801709999999999978e-01 8.936499999999999999e-02 -2.918160000000000198e-01 1.503799999999999928e-02 -3.274799999999999933e-02 -1.773800000000000029e-02 3.907909999999999995e-01 -1.571899999999999964e-01 -7.472170000000000201e-01 7.797999999999999376e-02 8.501060000000000283e-01 9.144800000000000151e-02 2.234839999999999882e-01 1.114359999999999934e-01 -1.824570000000000081e-01 -8.698129999999999473e-01 -1.856649999999999967e-01 1.875699999999999867e-01 -3.439670000000000227e-01 -1.185770000000000018e-01 8.779499999999999804e-02 4.402429999999999954e-01 6.547799999999999454e-02 -1.611049999999999982e-01 -5.922000000000000181e-03 2.003100000000000019e-02 1.186399999999999955e-02 4.061279999999999890e-01 -1.717750000000000110e-01 1.711429999999999896e-01 4.039240000000000053e-01 2.548460000000000170e-01 -2.363290000000000113e-01 -4.720260000000000011e-01 -1.154150000000000037e-01 4.926800000000000068e-01 -1.886450000000000071e-01 1.414050000000000029e-01 -2.667070000000000274e-01 2.107900000000000051e-02 -3.420199999999999907e-01 3.219159999999999799e-01 -3.669709999999999916e-01 -5.187049999999999716e-01 1.682049999999999934e-01 -3.298840000000000106e-01 3.093150000000000066e-01 7.542200000000000293e-02 -2.525760000000000227e-01 -6.063999999999999946e-03 -6.643300000000000594e-02 1.095541000000000098e+00
3.442169999999999952e-01 -7.400139999999999496e-01 1.381682000000000077e+00 -1.144030000000000047e-01 -1.559389999999999943e-01 8.432999999999999524e-03 -4.233850000000000113e-01 1.143529999999999963e-01 3.813739999999999908e-01 7.171499999999999542e-01 2.211990000000000067e-01 -7.076999999999999957e-02 -3.081679999999999975e-01 1.651930000000000065e-01 -2.822230000000000016e-01 1.494439999999999935e-01 1.348154000000000075e+00 -7.546859999999999680e-01 -4.580159999999999787e-01 -3.109540000000000082e-01 -1.879520000000000080e-01 -3.448000000000000110e-03 9.088829999999999965e-01 -3.172510000000000052e-01 -6.279869999999999619e-01 -8.006290000000000351e-01 -1.618759999999999921e-01 -1.340129999999999932e-01 3.983140000000000014e-01 2.771520000000000095e-01 1.736409999999999898e-01 -3.407729999999999926e-01 -1.645040000000000113e-01 2.521499999999999853e-01 8.639989999999999615e-01 -2.932830000000000159e-01 5.573339999999999961e-01 2.719320000000000070e-01 -7.203180000000000138e-01 -4.093379999999999797e-01 4.143700000000000161e-02 -2.662769999999999859e-01 2.526089999999999725e-01 -2.219800000000000106e-01 4.031509999999999816e-01 -2.437449999999999894e-01 -1.288459999999999883e-01 4.190300000000000136e-01 7.038280000000000092e-01 -7.670699999999999741e-02 -5.910579999999999723e-01 -2.616040000000000032e-01 -1.150674999999999892e+00 4.113600000000000034e-01 -5.394839999999999636e-01 -1.192933999999999939e+00 3.744350000000000178e-01 3.732179999999999942e-01 7.859869999999999912e-01 1.535809999999999953e-01
-2.220459999999999934e-01 -1.294810000000000128e-01 8.030600000000000238e-02 -8.280539999999999567e-01 6.891119999999999468e-01 -1.208410000000000040e-01 -7.923080000000000123e-01 -4.946300000000000141e-01 -6.788800000000000390e-02 -3.100840000000000263e-01 -6.897399999999999365e-02 -4.633800000000000141e-01 5.538769999999999527e-01 -2.460330000000000017e-01 2.851700000000000068e-02 -2.606760000000000188e-01 1.245170000000000027e-01 1.607860000000000122e-01 -8.371099999999999375e-02 -3.479099999999999970e-01 -1.365369999999999917e-01 -1.460909999999999986e-01 -5.996499999999999747e-02 -9.171390000000000375e-01 3.780620000000000092e-01 4.206200000000000216e-02 -8.975099999999999745e-02 7.780700000000000116e-02 1.765359999999999985e-01 5.214400000000000285e-02 6.482080000000000064e-01 1.918459999999999888e-01 4.314749999999999974e-01 1.001751000000000058e+00 -4.156719999999999859e-01 -1.133500000000000063e-01 -1.592719999999999969e-01 1.617139999999999966e-01 -2.707249999999999934e-01 6.870000000000000022e-04 -4.471339999999999759e-01 3.477009999999999823e-01 5.889599999999999697e-02 5.077580000000000426e-01 2.862910000000000177e-01 -1.647299999999999875e-01 -5.676300000000000096e-02 4.355120000000000102e-01 5.196929999999999605e-01 -3.774199999999999777e-01 -3.056300000000000128e-01 -1.278637999999999941e+00 9.561399999999999899e-01 -3.657790000000000208e-01 6.894010000000000415e-01 -1.424040000000000028e-01 -2.232200000000000017e-01 3.172289999999999832e-01 -6.329899999999999416e-02 1.251509999999999900e+00
-2.093200000000000061e-01 -7.705900000000000249e-02 -3.070570000000000244e-01 1.177057999999999938e+00 6.295020000000000060e-01 5.816670000000000451e-01 4.842330000000000245e-01 -5.508129999999999971e-01 -4.152700000000000141e-02 -1.290459999999999940e-01 3.909699999999999981e-02 -8.183100000000000096e-02 -3.159640000000000226e-01 4.756909999999999750e-01 -2.694999999999999913e-03 2.271710000000000118e-01 -6.752869999999999706e-01 1.842930000000000124e-01 1.827499999999999958e-02 6.559500000000000330e-01 -5.543080000000000229e-01 2.452599999999999919e-02 1.399300000000000023e-02 -1.021471999999999936e+00 3.721100000000000102e-02 -4.886999999999999851e-03 3.241589999999999749e-01 -1.054718999999999962e+00 -1.604500000000000023e-02 -8.598590000000000400e-01 -3.588270000000000071e-01 -2.576399999999999871e-02 -3.380299999999999971e-02 -1.109880000000000033e-01 2.664309999999999734e-01 5.956499999999999989e-02 2.195979999999999877e-01 1.471369999999999900e-01 -2.328000000000000208e-03 -5.009559999999999569e-01 -5.170900000000000496e-01 1.916589999999999960e-01 3.740919999999999801e-01 -5.915200000000000319e-02 3.162110000000000198e-01 2.632399999999999740e-01 -1.625240000000000018e-01 3.405130000000000101e-01 -1.168679999999999997e-01 -1.966130000000000100e-01 4.144599999999999673e-02 5.634299999999999725e-02 6.177150000000000141e-01 -7.352400000000000602e-02 -4.946490000000000054e-01 -4.048300000000000232e-01 3.636889999999999845e-01 4.095900000000000096e-01 -1.554500000000000048e-01 5.752019999999999911e-01