2.471220000000000194e+00 7.997999999999999554e-02 1.934956999999999994e+01 6.299019999999999619e+00 1.297080000000000011e+00 6.798589999999999911e+00 -1.970210000000000017e+00 3.883109999999999840e+00 9.067719999999999558e+00 -1.122589999999999977e+00 1.929019999999999957e+00 1.930266999999999911e+01 -2.784740000000000215e+00 4.679700000000000415e+00 1.642306999999999917e+01 1.828219999999999956e+00 2.138520000000000199e+00 3.369580000000000020e+00 2.094640000000000057e+00 4.230360000000000120e+00 1.306647000000000070e+01 4.359860000000000291e+00 -1.667000000000000079e-02 1.041906999999999961e+01 -2.173090000000000188e+00 6.185439999999999827e+00 1.286697000000000024e+01 5.071099999999999497e-01 1.893850000000000033e+00 1.642807000000000173e+01 5.118159999999999599e+00 5.519300000000000317e-01 2.270169999999999799e+00 3.678230000000000111e+00 4.690019999999999634e+00 5.327219999999999622e+00 4.945350000000000357e+00 2.815000000000000141e-02 1.295256999999999969e+01 5.908900000000000263e-01 4.186449999999999783e+00 9.259169999999999234e+00 5.550720000000000098e+00 1.999619999999999953e+00 1.676417000000000002e+01 4.650140000000000384e+00 3.934270000000000156e+00 1.310537000000000063e+01 1.126880000000000104e+00 7.604499999999999593e-01 5.974649999999999572e+00 3.895989999999999842e+00 2.886779999999999902e+00 7.238279999999999603e+00 -2.739050000000000207e+00 4.226409999999999556e+00 1.897006999999999977e+01 1.271810000000000107e+00 6.124399999999999622e+00 5.414740000000000109e+00 -1.167200000000000015e+00 6.334780000000000300e+00 2.263409999999999922e+00 5.381000000000000227e-01 2.114059999999999828e+00 1.352177000000000007e+01 1.312349999999999905e+00 6.039240000000000386e+00 1.978677000000000064e+01 1.323120000000000074e+00 1.403899999999999870e-01 1.030326999999999948e+01 1.981729999999999992e+00 4.629999999999999893e+00 1.602946999999999989e+01 2.680880000000000152e+00 3.806999999999999967e-02 1.603517000000000081e+01 3.681729999999999947e+00 3.874760000000000204e+00 2.881689999999999863e+00 1.336910000000000043e+00 2.372679999999999900e+00 1.933567000000000036e+01 -8.403199999999999559e-01 2.879529999999999923e+00 2.825390000000000068e+00 6.162600000000000300e+00 1.312159999999999993e+00 9.445280000000000342e+00
3.184450000000000003e+00 1.527600000000000069e-01 2.000412999999999997e+01 5.665160000000000196e+00 2.547140000000000182e+00 6.407329999999999970e+00 4.943539999999999601e+00 3.584090000000000220e+00 1.055072999999999972e+01 -7.582200000000000051e-01 2.239689999999999959e+00 1.993282999999999916e+01 -2.348819999999999908e+00 4.139649999999999608e+00 1.688522999999999996e+01 9.925100000000000033e-01 2.309239999999999959e+00 3.344450000000000145e+00 2.548140000000000072e+00 3.994930000000000092e+00 1.333253000000000021e+01 1.251139999999999919e+00 5.654300000000000104e+00 1.023302999999999940e+01 1.795649999999999968e+00 3.860000000000000236e-02 1.313702999999999932e+01 1.589690000000000047e+00 2.428620000000000001e+00 1.647872999999999877e+01 5.153100000000000236e+00 4.199300000000000255e-01 3.202920000000000211e+00 2.053469999999999906e+00 4.554120000000000168e+00 6.280400000000000205e+00 1.678160000000000096e+00 6.389999999999999680e+00 1.273282999999999987e+01 2.564080000000000137e+00 3.568369999999999820e+00 9.572580000000000311e+00 6.233469999999999622e+00 1.707699999999999996e+00 1.705502999999999858e+01 4.939400000000000013e+00 4.035590000000000011e+00 1.293562999999999974e+01 8.546799999999999953e-01 2.252270000000000216e+00 6.000370000000000203e+00 4.621660000000000323e+00 4.911179999999999879e+00 6.064129999999999576e+00 -2.196349999999999802e+00 4.705759999999999721e+00 1.979503000000000057e+01 4.439720000000000333e+00 4.199200000000000155e-01 5.860219999999999985e+00 2.835160000000000124e+00 6.674200000000000133e-01 2.335960000000000036e+00 3.159799999999999831e-01 2.138490000000000002e+00 1.303032999999999930e+01 2.035940000000000083e+00 6.345839999999999925e+00 2.011902999999999864e+01 -1.278119999999999923e+00 5.977540000000000298e+00 1.023212999999999973e+01 2.646790000000000198e+00 4.723880000000000301e+00 1.598132999999999981e+01 -9.834000000000000519e-01 6.423470000000000013e+00 1.589152999999999949e+01 2.455150000000000166e+00 4.588009999999999700e+00 3.041409999999999947e+00 1.836449999999999916e+00 2.434029999999999916e+00 1.963232999999999961e+01 -1.458779999999999966e+00 2.665779999999999816e+00 2.337860000000000049e+00 6.155710000000000015e+00 1.504990000000000050e+00 9.175079999999999458e+00
-1.216860000000000053e+00 5.709670000000000023e+00 3.606300000000000061e-01 -6.647999999999999465e-01 1.892679999999999918e+00 6.695610000000000284e+00 -2.093900000000000095e+00 4.093029999999999724e+00 9.109999999999999432e+00 -7.647599999999999953e-01 2.551890000000000214e+00 1.960874000000000095e+01 4.779410000000000380e+00 4.920270000000000366e+00 1.682974000000000103e+01 9.020000000000000240e-01 2.580849999999999866e+00 2.613379999999999814e+00 2.423049999999999926e+00 4.697840000000000238e+00 1.353794000000000075e+01 1.596880000000000077e+00 5.722640000000000171e+00 9.792780000000000484e+00 2.634360000000000035e+00 5.063100000000000378e-01 1.338494000000000028e+01 1.527239999999999931e+00 2.702170000000000183e+00 1.660823999999999856e+01 4.947149999999999714e+00 3.038600000000000190e-01 2.934270000000000156e+00 2.715019999999999989e+00 3.794029999999999792e+00 6.177369999999999806e+00 5.230629999999999669e+00 7.135899999999999466e-01 1.246003999999999934e+01 2.576519999999999921e+00 3.429899999999999949e+00 9.312379999999999214e+00 6.201229999999999798e+00 2.225589999999999957e+00 1.705274000000000001e+01 -2.192270000000000163e+00 4.534629999999999939e+00 1.340953999999999979e+01 1.495640000000000081e+00 1.411259999999999959e+00 5.440640000000000143e+00 -1.907210000000000072e+00 4.162689999999999557e+00 6.225030000000000285e+00 4.645850000000000257e+00 4.327009999999999579e+00 1.969473999999999947e+01 1.280589999999999895e+00 5.967649999999999899e+00 6.451060000000000016e+00 -1.327669999999999906e+00 6.124329999999999607e+00 2.970200000000000173e+00 1.329679999999999973e+00 2.529770000000000074e+00 1.263673999999999964e+01 1.394640000000000102e+00 5.803270000000000373e+00 1.172200000000000047e-01 -8.253099999999999881e-01 6.098200000000000287e+00 1.009943999999999953e+01 1.896670000000000078e+00 5.073959999999999582e+00 1.646203999999999823e+01 3.103940000000000143e+00 5.407800000000000384e-01 1.631454000000000093e+01 2.783770000000000078e+00 4.525960000000000427e+00 3.222290000000000099e+00 1.687270000000000048e+00 2.736050000000000093e+00 1.996963999999999828e+01 5.655400000000000205e+00 2.747180000000000177e+00 3.414820000000000189e+00 -3.097699999999999898e-01 1.890879999999999894e+00 9.206360000000000099e+00
4.934730000000000061e+00 2.573900000000000077e+00 1.766749000000000080e+01 -9.617499999999999938e-01 5.695730000000000182e+00 5.630740000000000300e+00 4.409939999999999749e+00 2.894340000000000135e+00 9.928819999999999979e+00 -5.228000000000000425e-01 2.165540000000000020e+00 3.247800000000000131e-01 1.589720000000000022e+00 7.747500000000000497e-01 1.742639000000000138e+01 1.540189999999999948e+00 1.492920000000000025e+00 3.716639999999999944e+00 1.398989999999999956e+00 2.365349999999999842e+00 1.250548999999999999e+01 8.206299999999999706e-01 5.270769999999999733e+00 1.005678999999999945e+01 -2.187790000000000123e+00 4.882500000000000284e+00 1.318979000000000035e+01 1.586109999999999909e+00 4.950980000000000381e+00 1.792598999999999876e+01 1.481649999999999912e+00 6.048470000000000013e+00 2.641890000000000072e+00 2.956269999999999953e+00 3.757779999999999898e+00 5.617980000000000196e+00 6.248200000000000420e-01 5.144700000000000273e+00 1.295908999999999978e+01 1.648889999999999967e+00 2.717560000000000198e+00 9.561130000000000351e+00 -1.006259999999999932e+00 4.817319999999999602e+00 1.679798999999999864e+01 4.295049999999999812e+00 2.387589999999999879e+00 1.302649000000000079e+01 1.936530000000000085e+00 1.426010000000000000e+00 6.778979999999999784e+00 -1.813949999999999951e+00 3.516980000000000217e+00 6.968709999999999738e+00 7.140699999999999825e-01 6.883500000000000174e-01 1.984928999999999988e+01 1.524199999999999999e+00 6.207699999999999996e+00 5.365630000000000344e+00 -1.331860000000000044e+00 5.159279999999999866e+00 3.155850000000000044e+00 7.024160000000000181e+00 4.721600000000000241e-01 1.315839000000000070e+01 4.384009999999999962e+00 2.174970000000000070e+00 2.017758999999999858e+01 -2.021860000000000213e+00 5.536150000000000126e+00 1.035199000000000069e+01 5.980850000000000222e+00 5.071600000000000552e-01 1.621248999999999896e+01 2.629690000000000083e+00 2.825200000000000156e+00 1.639068999999999932e+01 2.965939999999999799e+00 3.924889999999999990e+00 2.946509999999999962e+00 1.366170000000000107e+00 3.946889999999999787e+00 6.643000000000000294e-02 -9.854899999999999771e-01 2.062279999999999891e+00 3.059649999999999981e+00 6.223819999999999908e+00 8.373699999999999477e-01 9.467739999999999156e+00
4.267509999999999692e+00 1.609820000000000029e+00 1.940694999999999837e+01 -6.299700000000000299e-01 6.187369999999999592e+00 6.067910000000000359e+00 2.476539999999999964e+00 3.281429999999999847e+00 1.104274999999999984e+01 1.009900000000000020e+00 1.429759999999999920e+00 2.097925000000000040e+01 -1.010860000000000092e+00 5.665910000000000224e+00 1.669825000000000159e+01 2.265089999999999826e+00 2.354410000000000114e+00 3.657999999999999918e+00 -6.218599999999999683e-01 3.708940000000000126e+00 1.311134999999999984e+01 8.897199999999999553e-01 6.432019999999999627e+00 1.095734999999999992e+01 3.515839999999999854e+00 5.842089999999999783e+00 1.317275000000000063e+01 2.681869999999999976e+00 3.893590000000000106e+00 1.756295000000000073e+01 6.227780000000000094e+00 2.831199999999999828e-01 4.165930000000000355e+00 3.638119999999999798e+00 4.637279999999999625e+00 6.709889999999999688e+00 -1.179650000000000087e+00 6.057990000000000208e+00 1.352715000000000067e+01 2.736999999999999850e-02 3.926810000000000134e+00 1.036270000000000024e+01 1.106000000000000039e-02 3.420949999999999935e+00 1.719395000000000095e+01 2.483359999999999790e+00 3.388549999999999951e+00 1.369735000000000014e+01 2.193519999999999914e+00 2.222280000000000033e+00 6.418459999999999610e+00 -1.572149999999999936e+00 4.448920000000000208e+00 7.856230000000000047e+00 -9.931699999999999973e-01 6.427950000000000053e+00 2.046784999999999854e+01 2.156969999999999832e+00 6.815430000000000099e+00 6.729770000000000252e+00 -2.212200000000000000e-01 6.651909999999999989e+00 3.654380000000000184e+00 6.385810000000000208e+00 1.397389999999999910e+00 1.412395000000000067e+01 6.418429999999999858e+00 1.055099999999999927e+00 2.110634999999999906e+01 3.497119999999999784e+00 5.691639999999999588e+00 1.043792999999999971e+01 3.683879999999999821e+00 6.002699999999999925e+00 1.666665000000000063e+01 3.798140000000000072e+00 1.472140000000000004e+00 1.668665000000000020e+01 3.716689999999999827e+00 4.446360000000000312e+00 3.612880000000000091e+00 2.734100000000000197e+00 3.672899999999999832e+00 2.034615000000000151e+01 -1.395399999999999974e-01 1.983680000000000110e+00 2.516270000000000007e+00 3.894140000000000157e+00 1.639259999999999939e+00 9.717090000000000671e+00
2.878709999999999880e+00 7.813000000000000500e-02 1.065099999999999936e-01 -1.404840000000000089e+00 2.612070000000000114e+00 5.278539999999999566e+00 4.483019999999999783e+00 4.123249999999999638e+00 9.061690000000000467e+00 -6.744900000000000340e-01 2.195110000000000117e+00 1.994349000000000061e+01 -2.410899999999999821e+00 4.407960000000000100e+00 1.751908999999999850e+01 1.309390000000000054e+00 2.187930000000000152e+00 3.654110000000000191e+00 2.137509999999999799e+00 4.676260000000000083e+00 1.387859000000000087e+01 8.063799999999999857e-01 6.420049999999999812e+00 9.656069999999999709e+00 -1.041449999999999987e+00 6.226950000000000429e+00 1.304119000000000028e+01 1.385059999999999958e+00 1.699040000000000106e+00 1.666198999999999941e+01 1.447259999999999991e+00 6.185509999999999842e+00 2.911690000000000111e+00 2.347890000000000033e+00 4.628809999999999647e+00 5.742409999999999570e+00 4.921509999999999607e+00 6.426999999999999380e-02 1.254859000000000080e+01 1.892940000000000067e+00 3.958520000000000039e+00 8.992869999999999919e+00 6.116419999999999746e+00 1.780299999999999994e+00 1.710169000000000139e+01 -2.390559999999999796e+00 4.244559999999999889e+00 1.331818999999999953e+01 1.148430000000000062e+00 2.277810000000000112e+00 6.142229999999999634e+00 -2.257639999999999869e+00 4.952210000000000001e+00 6.103130000000000166e+00 -2.561920000000000197e+00 4.661349999999999660e+00 2.948999999999999885e-02 4.754260000000000375e+00 2.748200000000000087e-01 5.673099999999999810e+00 -1.578710000000000058e+00 6.271840000000000082e+00 2.827350000000000030e+00 1.043749999999999956e+00 2.053599999999999870e+00 1.390268999999999977e+01 1.826459999999999972e+00 6.161629999999999718e+00 2.004598999999999975e+01 1.998439999999999994e+00 2.459000000000000075e-01 9.595700000000000784e+00 2.752559999999999896e+00 4.053139999999999965e+00 1.658558999999999983e+01 -5.731000000000000538e-01 6.047880000000000145e+00 1.696949000000000041e+01 3.028430000000000177e+00 4.258049999999999891e+00 2.767079999999999984e+00 1.799060000000000104e+00 2.407849999999999824e+00 1.961948999999999899e+01 -1.253570000000000073e+00 2.279580000000000162e+00 2.385959999999999859e+00 5.558119999999999727e+00 1.884249999999999980e+00 8.323909999999999698e+00
-2.027740000000000098e+00 6.334399999999999586e+00 3.132900000000000129e-01 6.777949999999999697e+00 9.411800000000000166e-01 7.390990000000000393e+00 -1.128489999999999993e+00 4.400900000000000034e+00 9.147880000000000678e+00 5.371730000000000338e+00 1.865499999999999936e+00 1.939487000000000094e+01 4.701529999999999987e+00 3.996170000000000222e+00 1.635896999999999935e+01 1.253109999999999946e+00 2.466180000000000039e+00 3.399199999999999999e+00 1.692669999999999897e+00 3.682329999999999881e+00 1.393816999999999950e+01 4.757209999999999717e+00 -1.590399999999999869e-01 1.081926999999999950e+01 -2.144950000000000134e+00 6.222929999999999851e+00 1.330117000000000083e+01 7.967300000000000493e-01 1.794389999999999930e+00 1.699296999999999969e+01 4.574939999999999785e+00 1.622999999999999998e+00 2.696820000000000217e+00 -1.065069999999999961e+00 6.269470000000000098e+00 5.309529999999999639e+00 6.685299999999999576e-01 6.216499999999999915e+00 1.335426999999999964e+01 1.948760000000000048e+00 4.943039999999999878e+00 9.118650000000000588e+00 5.791350000000000442e+00 1.429580000000000073e+00 1.675206999999999979e+01 4.215880000000000294e+00 3.834070000000000089e+00 1.344036999999999971e+01 1.731649999999999912e+00 1.686069999999999958e+00 5.895220000000000127e+00 -1.617129999999999956e+00 4.157639999999999780e+00 6.306379999999999875e+00 4.547150000000000247e+00 4.286019999999999719e+00 1.954056999999999888e+01 5.252189999999999692e+00 2.558699999999999863e-01 4.641370000000000218e+00 -2.789099999999999913e+00 6.467489999999999739e+00 2.994310000000000027e+00 3.003199999999999759e-01 1.608440000000000092e+00 1.378987000000000052e+01 9.660800000000000498e-01 6.463809999999999611e+00 4.023900000000000254e-01 1.943170000000000064e+00 -1.168099999999999972e-01 1.039877000000000073e+01 2.154430000000000067e+00 3.777439999999999909e+00 1.668396999999999863e+01 -1.581930000000000058e+00 6.354650000000000354e+00 1.641076999999999941e+01 3.178739999999999899e+00 3.740079999999999849e+00 2.336310000000000109e+00 6.469700000000000450e-01 1.661100000000000021e+00 1.993277000000000143e+01 -1.178719999999999990e+00 3.262729999999999908e+00 2.852669999999999817e+00 5.982120000000000104e+00 1.959459999999999980e+00 9.721470000000000056e+00
-1.141610000000000014e+00 6.101280000000000037e+00 1.905103000000000080e+01 -1.031290000000000040e+00 2.528049999999999908e+00 6.311200000000000365e+00 -2.638180000000000192e+00 4.720379999999999576e+00 9.911479999999999180e+00 5.744519999999999627e+00 2.163339999999999819e+00 1.894962999999999909e+01 -2.272219999999999906e+00 4.796490000000000364e+00 1.596503000000000050e+01 1.081530000000000102e+00 2.312100000000000044e+00 3.119920000000000027e+00 2.119310000000000027e+00 4.799809999999999910e+00 1.350412999999999997e+01 4.478530000000000122e+00 4.071400000000000019e-01 1.055113000000000056e+01 2.122900000000000009e+00 6.995200000000000307e-01 1.304082999999999970e+01 1.313919999999999977e+00 2.567410000000000192e+00 1.622402999999999906e+01 6.438700000000000534e-01 6.354079999999999728e+00 3.405409999999999826e+00 2.656940000000000079e+00 4.457659999999999734e+00 6.032460000000000377e+00 4.405759999999999899e+00 9.526999999999999913e-01 1.304702999999999946e+01 1.821769999999999889e+00 4.665320000000000356e+00 9.878669999999999618e+00 5.844699999999999562e+00 2.466839999999999922e+00 1.618813000000000102e+01 -2.442499999999999893e+00 4.751669999999999838e+00 1.321692999999999962e+01 1.524809999999999999e+00 2.252470000000000194e+00 6.160490000000000244e+00 -1.962509999999999977e+00 5.174009999999999998e+00 6.191939999999999777e+00 4.126240000000000130e+00 4.320319999999999716e+00 1.967802999999999969e+01 6.772399999999999531e-01 6.404180000000000206e+00 6.312660000000000160e+00 -1.622870000000000035e+00 6.430109999999999992e+00 2.307059999999999889e+00 3.794899999999999940e-01 2.519219999999999793e+00 1.360472999999999999e+01 1.078449999999999909e+00 6.336199999999999832e+00 2.008252999999999844e+01 1.871019999999999905e+00 6.770800000000000152e-01 1.030782999999999916e+01 2.385219999999999896e+00 5.132080000000000197e+00 1.627353000000000094e+01 2.909850000000000048e+00 5.168000000000000371e-01 1.627043000000000106e+01 2.443859999999999921e+00 4.400909999999999656e+00 3.292980000000000018e+00 1.073720000000000008e+00 2.090380000000000127e+00 1.911412999999999940e+01 5.871069999999999567e+00 2.276870000000000172e+00 3.647559999999999913e+00 -1.265749999999999931e+00 2.682259999999999867e+00 9.421319999999999695e+00
3.515880000000000116e+00 1.970890000000000031e+00 1.740519000000000105e+01 -1.742520000000000069e+00 6.229870000000000019e+00 5.560740000000000016e+00 5.789850000000000385e+00 2.560350000000000126e+00 1.060879000000000083e+01 6.164430000000000298e+00 1.754899999999999904e+00 2.130100000000000049e-01 3.070110000000000117e+00 6.609759999999999636e+00 1.802139000000000024e+01 1.333369999999999944e+00 2.382039999999999935e+00 3.026559999999999917e+00 3.150589999999999780e+00 2.909689999999999888e+00 1.274268999999999963e+01 2.510089999999999932e+00 5.675760000000000360e+00 1.040958999999999968e+01 -7.353600000000000136e-01 5.377869999999999706e+00 1.261059000000000019e+01 -5.727999999999999758e-01 4.128930000000000433e+00 1.780368999999999957e+01 1.540010000000000101e+00 6.233089999999999797e+00 3.435080000000000133e+00 3.764359999999999928e+00 2.474790000000000045e+00 5.622099999999999653e+00 2.374470000000000081e+00 5.347870000000000346e+00 1.306629000000000040e+01 3.338849999999999874e+00 3.279790000000000205e+00 1.014128999999999969e+01 4.567770000000000330e+00 4.313790000000000013e+00 1.685098999999999947e+01 -1.379879999999999995e+00 3.041720000000000201e+00 1.310879000000000083e+01 1.224480000000000013e+00 2.329619999999999802e+00 6.112829999999999764e+00 5.089000000000000412e+00 4.062979999999999592e+00 6.811729999999999841e+00 3.935420000000000140e+00 6.639249999999999652e+00 2.033278999999999925e+01 9.914899999999999824e-01 6.516289999999999694e+00 6.189300000000000246e+00 -1.200399999999999912e+00 6.374640000000000306e+00 2.948510000000000186e+00 1.689939999999999998e+00 8.851099999999999524e-01 1.347508999999999979e+01 3.890789999999999971e+00 1.117790000000000061e+00 1.978209000000000017e+01 -2.200300000000000034e-01 5.592019999999999769e+00 9.999710000000000321e+00 8.989599999999999813e-01 5.879340000000000011e+00 1.672689000000000092e+01 4.547800000000000176e-01 2.200530000000000097e+00 1.645289000000000001e+01 3.255850000000000133e+00 4.266560000000000130e+00 3.135460000000000136e+00 -6.049999999999999822e-03 4.624259999999999593e+00 2.041538999999999859e+01 -1.265709999999999891e+00 2.339179999999999815e+00 2.895350000000000090e+00 1.027200000000000057e-01 1.204809999999999937e+00 9.230000000000000426e+00
-8.856800000000000228e-01 6.235719999999999708e+00 1.994719999999999871e+01 -1.168490000000000029e+00 2.551429999999999865e+00 5.933040000000000092e+00 4.989779999999999660e+00 4.314180000000000348e+00 9.317449999999999122e+00 6.491640000000000299e+00 1.869410000000000016e+00 1.891629999999999967e+01 5.097419999999999618e+00 4.469179999999999708e+00 1.612859999999999872e+01 1.700919999999999987e+00 2.047349999999999781e+00 3.636989999999999945e+00 2.170529999999999848e+00 4.431449999999999889e+00 1.309270000000000067e+01 5.475249999999999950e+00 2.681000000000000050e-01 1.047990000000000066e+01 2.505380000000000162e+00 3.480599999999999805e-01 1.276800000000000068e+01 1.651639999999999997e+00 1.870149999999999979e+00 1.718759999999999977e+01 1.092039999999999900e+00 6.199930000000000163e+00 2.619299999999999962e+00 2.647940000000000182e+00 5.039089999999999847e+00 6.032910000000000217e+00 5.243699999999999584e+00 7.097799999999999665e-01 1.300880000000000081e+01 2.635990000000000055e+00 4.147380000000000067e+00 1.043069999999999986e+01 6.311989999999999768e+00 1.564189999999999969e+00 1.613299999999999912e+01 4.789729999999999599e+00 4.753630000000000244e+00 1.376999999999999957e+01 1.589679999999999982e+00 2.312860000000000138e+00 6.340880000000000294e+00 -2.290049999999999919e+00 4.796409999999999840e+00 6.790420000000000122e+00 5.044209999999999638e+00 3.984840000000000160e+00 1.939339999999999975e+01 4.574690000000000367e+00 6.143300000000000427e-01 6.447020000000000195e+00 -1.311450000000000005e+00 6.047049999999999592e+00 2.709810000000000052e+00 9.999000000000000110e-01 2.325169999999999959e+00 1.345219999999999949e+01 1.725759999999999961e+00 6.092660000000000409e+00 2.024230000000000018e+01 2.420129999999999892e+00 3.820299999999999807e-01 9.946099999999999497e+00 2.498590000000000089e+00 4.287069999999999936e+00 1.634420000000000073e+01 -3.477899999999999880e-01 6.156010000000000204e+00 1.666369999999999862e+01 2.933129999999999793e+00 4.215010000000000367e+00 3.307209999999999983e+00 1.749849999999999905e+00 2.503439999999999888e+00 1.974950000000000117e+01 -1.102649999999999908e+00 2.178249999999999797e+00 3.425580000000000069e+00 -7.659399999999999542e-01 2.291049999999999809e+00 9.390779999999999461e+00
-1.888139999999999930e+00 6.287790000000000212e+00 6.607499999999999485e-01 5.845010000000000261e+00 1.386449999999999960e+00 7.147800000000000153e+00 -5.976700000000000346e-01 4.535260000000000069e+00 8.829449999999999577e+00 -1.479379999999999917e+00 1.967070000000000096e+00 1.982695000000000007e+01 4.479669999999999597e+00 3.671050000000000146e+00 1.591804999999999914e+01 8.666000000000000369e-01 2.370849999999999902e+00 4.132749999999999702e+00 2.124280000000000168e+00 4.005650000000000155e+00 1.301715000000000089e+01 4.971460000000000434e+00 3.472999999999999698e-02 1.061164999999999914e+01 -1.779279999999999973e+00 6.043720000000000425e+00 1.323094999999999999e+01 6.231799999999999562e-01 1.669890000000000096e+00 1.675975000000000037e+01 4.718650000000000233e+00 1.887180000000000080e+00 2.762760000000000105e+00 -1.786680000000000046e+00 5.680780000000000385e+00 5.273950000000000138e+00 9.766700000000000381e-01 6.311119999999999841e+00 1.320465000000000089e+01 1.213729999999999976e+00 5.259900000000000020e+00 7.182750000000000412e+00 5.787480000000000402e+00 1.320359999999999978e+00 1.696594999999999942e+01 4.677430000000000199e+00 3.806280000000000108e+00 1.303165000000000084e+01 9.227800000000000447e-01 1.031339999999999923e+00 6.465729999999999755e+00 4.874039999999999928e+00 4.024829999999999686e+00 7.404420000000000002e+00 4.782949999999999591e+00 4.077869999999999884e+00 1.978525000000000134e+01 4.525570000000000093e+00 2.859099999999999975e-01 4.779740000000000322e+00 6.961600000000000010e-01 1.309599999999999931e-01 2.732590000000000074e+00 7.721000000000000085e-01 1.499109999999999943e+00 1.361544999999999916e+01 9.200000000000000400e-01 6.352549999999999919e+00 1.069560000000000066e+00 2.583410000000000206e+00 1.439699999999999869e-01 1.019139000000000017e+01 1.908660000000000023e+00 3.830210000000000115e+00 1.631115000000000137e+01 -1.560349999999999904e+00 5.831450000000000244e+00 1.610004999999999953e+01 3.034809999999999786e+00 3.729070000000000107e+00 3.667060000000000208e+00 1.134519999999999973e+00 1.517230000000000079e+00 1.958174999999999955e+01 -7.213300000000000267e-01 3.493149999999999977e+00 2.529830000000000023e+00 -9.278999999999999471e-01 2.138129999999999864e+00 9.993380000000000152e+00
2.083849999999999980e+00 2.390299999999999925e-01 2.047626999999999953e+01 5.709979999999999833e+00 1.771050000000000013e+00 6.276539999999999786e+00 -2.497050000000000214e+00 4.476270000000000415e+00 9.073079999999999146e+00 -1.013840000000000074e+00 2.378410000000000135e+00 1.861399999999999999e-01 -1.946430000000000105e+00 4.351210000000000022e+00 1.645226999999999862e+01 1.513090000000000046e+00 2.017500000000000071e+00 3.140379999999999949e+00 2.829439999999999955e+00 4.521670000000000300e+00 1.422357000000000049e+01 4.904049999999999798e+00 2.529500000000000082e-01 1.059937000000000040e+01 -1.414130000000000109e+00 6.536170000000000258e+00 1.356877000000000066e+01 1.726679999999999993e+00 2.731069999999999887e+00 1.632907000000000153e+01 1.640330000000000066e+00 6.127299999999999969e+00 2.578469999999999818e+00 1.918979999999999908e+00 4.094999999999999751e+00 6.593329999999999913e+00 1.211400000000000032e+00 6.165079999999999671e+00 1.307937000000000083e+01 2.233229999999999826e+00 4.524709999999999788e+00 9.127200000000000202e+00 -7.976499999999999702e-01 2.138659999999999783e+00 1.698836999999999975e+01 5.170289999999999608e+00 3.866089999999999804e+00 1.348376999999999981e+01 8.046999999999999709e-01 1.959030000000000049e+00 5.751070000000000348e+00 -2.459210000000000118e+00 4.620250000000000412e+00 6.443889999999999674e+00 -2.492140000000000022e+00 4.390159999999999840e+00 1.938076999999999828e+01 5.106100000000000083e-01 6.382539999999999658e+00 5.558670000000000222e+00 -1.696069999999999967e+00 5.988900000000000112e+00 2.441489999999999938e+00 1.169559999999999933e+00 2.555190000000000072e+00 1.370806999999999931e+01 1.313180000000000014e+00 6.427570000000000228e+00 2.023986999999999981e+01 -1.398390000000000022e+00 6.539710000000000356e+00 1.030987000000000009e+01 3.086149999999999949e+00 4.987449999999999939e+00 1.675836999999999932e+01 3.099940000000000140e+00 2.125499999999999889e-01 1.608117000000000019e+01 3.069729999999999848e+00 4.029320000000000235e+00 3.594019999999999992e+00 1.266089999999999938e+00 2.677799999999999958e+00 2.010217000000000098e+01 5.844590000000000174e+00 2.216579999999999995e+00 2.641109999999999847e+00 6.206940000000000346e+00 1.966210000000000013e+00 9.204040000000000887e+00
3.354130000000000056e+00 1.796310000000000073e+00 1.864600000000000080e+01 2.431080000000000130e+00 6.466899999999999871e-01 6.244449999999999612e+00 -9.777599999999999625e-01 2.600389999999999979e+00 1.064939999999999998e+01 5.709990000000000343e+00 1.681179999999999897e+00 2.965300000000000158e-01 3.015080000000000204e+00 6.266700000000000159e+00 1.820810000000000173e+01 1.399759999999999893e+00 2.580179999999999918e+00 3.066320000000000157e+00 3.756660000000000110e+00 2.535000000000000142e+00 1.292910000000000004e+01 2.789950000000000152e+00 5.430550000000000210e+00 1.081879999999999953e+01 5.503999999999999865e-02 4.992779999999999774e+00 1.284350000000000058e+01 -7.894600000000000506e-01 3.890859999999999985e+00 1.768779999999999930e+01 5.641259999999999941e+00 5.987299999999999844e-01 4.096689999999999721e+00 3.586090000000000000e+00 3.392329999999999846e+00 5.465150000000000396e+00 2.634939999999999838e+00 4.963339999999999641e+00 1.336430000000000007e+01 4.257089999999999819e+00 3.191860000000000142e+00 1.017292999999999914e+01 4.349350000000000271e+00 4.110039999999999694e+00 1.725609999999999999e+01 6.334369999999999834e+00 2.369559999999999889e+00 1.365070000000000050e+01 1.060249999999999915e+00 2.707559999999999967e+00 5.825750000000000206e+00 4.294360000000000177e+00 5.602430000000000021e+00 7.028240000000000265e+00 2.704499999999999904e+00 5.836470000000000269e+00 5.956999999999999795e-02 5.018189999999999706e+00 1.115639999999999965e+00 6.590609999999999857e+00 -1.160889999999999977e+00 6.598589999999999733e+00 3.673649999999999860e+00 2.338940000000000019e+00 7.728300000000000169e-01 1.373440000000000083e+01 3.055810000000000137e+00 1.839450000000000029e+00 2.109524000000000044e+01 1.761500000000000010e-01 5.280120000000000147e+00 9.968579999999999330e+00 1.079500000000000043e-01 6.762979999999999769e+00 1.702189999999999870e+01 7.538799999999999946e-01 1.756310000000000038e+00 1.717160000000000153e+01 3.018159999999999954e+00 4.720579999999999998e+00 3.162170000000000147e+00 -3.006699999999999928e-01 3.907480000000000064e+00 2.066720000000000113e+01 -1.192269999999999941e+00 2.681420000000000137e+00 2.632270000000000110e+00 4.700599999999999778e-01 7.701299999999999812e-01 9.953640000000000043e+00