1.983479999999999910e+00 1.144290000000000029e+00 1.156070000000000064e+01 -5.000000000000000104e-04 4.590099999999999625e+00 1.155990000000000073e+01 5.949390000000000178e+00 1.151769999999999960e+00 1.156419999999999959e+01 3.969050000000000189e+00 4.581290000000000084e+00 1.156000000000000050e+01 1.988180000000000058e+00 1.149319999999999897e+00 1.569650000000000034e+01 5.960000000000000020e-03 4.582840000000000025e+00 1.569340000000000046e+01 5.956900000000000084e+00 1.143170000000000019e+00 1.570149999999999935e+01 3.967429999999999790e+00 4.580899999999999750e+00 1.569549999999999912e+01 7.937610000000000277e+00 2.000000000000000164e-05 1.010500000000000043e+01 -1.980660000000000087e+00 3.431299999999999795e+00 1.011139999999999972e+01 3.976679999999999993e+00 9.700000000000000505e-04 1.010929999999999929e+01 1.986080000000000068e+00 3.433450000000000113e+00 1.010050000000000026e+01 -3.963979999999999837e+00 6.873420000000000307e+00 1.364049999999999940e+01 5.948360000000000092e+00 3.433670000000000222e+00 1.363380000000000081e+01 3.968030000000000168e+00 4.709999999999999777e-03 1.364059999999999917e+01 1.984909999999999952e+00 3.435799999999999965e+00 1.363610000000000078e+01 8.700000000000000051e-04 6.899999999999999667e-04 1.715599999999999881e+01 5.949060000000000237e+00 3.438229999999999897e+00 1.715370000000000061e+01 5.999999999999999474e-04 6.874649999999999928e+00 1.715459999999999852e+01 1.987630000000000008e+00 3.440920000000000201e+00 1.715589999999999904e+01
1.978949999999999987e+00 1.148060000000000080e+00 1.155579999999999963e+01 2.390000000000000197e-03 4.581690000000000040e+00 1.155550000000000033e+01 5.956500000000000128e+00 1.151869999999999949e+00 1.156799999999999962e+01 3.977250000000000174e+00 4.580589999999999939e+00 1.156259999999999977e+01 1.981160000000000032e+00 1.140160000000000062e+00 1.569289999999999985e+01 -4.530000000000000172e-03 4.584349999999999703e+00 1.569430000000000014e+01 5.957539999999999836e+00 1.145920000000000050e+00 1.569359999999999999e+01 3.965250000000000163e+00 4.578630000000000422e+00 1.569630000000000081e+01 7.934590000000000032e+00 4.709999999999999777e-03 1.010369999999999990e+01 -1.986159999999999926e+00 3.441689999999999916e+00 1.010539999999999949e+01 8.499999999999999526e-04 6.874579999999999913e+00 1.010529999999999973e+01 1.985069999999999890e+00 3.437749999999999861e+00 1.010580000000000034e+01 7.934499999999999886e+00 4.930000000000000354e-03 1.363419999999999987e+01 -1.984720000000000040e+00 3.438079999999999803e+00 1.363499999999999979e+01 3.976890000000000036e+00 1.660000000000000017e-03 1.363020000000000032e+01 1.986799999999999899e+00 3.437769999999999992e+00 1.363770000000000060e+01 -3.963940000000000019e+00 6.869959999999999845e+00 1.715030000000000143e+01 -1.985449999999999937e+00 3.440380000000000216e+00 1.715240000000000009e+01 3.966680000000000206e+00 5.349999999999999721e-03 1.715559999999999974e+01 1.987740000000000062e+00 3.441840000000000011e+00 1.715840000000000032e+01
1.984720000000000040e+00 1.145839999999999970e+00 1.156109999999999971e+01 3.000000000000000076e-05 4.583420000000000272e+00 1.156109999999999971e+01 5.954089999999999883e+00 1.145839999999999970e+00 1.156109999999999971e+01 3.969399999999999817e+00 4.583420000000000272e+00 1.156109999999999971e+01 1.984720000000000040e+00 1.145839999999999970e+00 1.569780000000000086e+01 3.000000000000000076e-05 4.583420000000000272e+00 1.569780000000000086e+01 5.954089999999999883e+00 1.145839999999999970e+00 1.569780000000000086e+01 3.969399999999999817e+00 4.583420000000000272e+00 1.569780000000000086e+01 -3.969300000000000050e+00 6.875110000000000277e+00 1.010609999999999964e+01 -1.984609999999999985e+00 3.437530000000000197e+00 1.010609999999999964e+01 6.999999999999999387e-05 6.875110000000000277e+00 1.010609999999999964e+01 1.984760000000000080e+00 3.437530000000000197e+00 1.010609999999999964e+01 7.938570000000000348e+00 1.000000000000000048e-04 1.363480000000000025e+01 5.953879999999999839e+00 3.437669999999999781e+00 1.363480000000000025e+01 3.969199999999999839e+00 1.000000000000000048e-04 1.363480000000000025e+01 1.984509999999999996e+00 3.437669999999999781e+00 1.363480000000000025e+01 -3.969300000000000050e+00 6.875110000000000277e+00 1.715520000000000067e+01 -1.984609999999999985e+00 3.437530000000000197e+00 1.715520000000000067e+01 6.999999999999999387e-05 6.875110000000000277e+00 1.715520000000000067e+01 1.984760000000000080e+00 3.437530000000000197e+00 1.715520000000000067e+01
1.987419999999999964e+00 1.147829999999999906e+00 1.156170000000000009e+01 -7.069999999999999896e-03 4.582270000000000287e+00 1.156039999999999957e+01 5.953960000000000363e+00 1.145950000000000024e+00 1.156099999999999994e+01 3.965749999999999886e+00 4.585340000000000416e+00 1.156409999999999982e+01 1.983409999999999895e+00 1.146120000000000028e+00 1.569929999999999914e+01 -5.800000000000000034e-04 4.581979999999999720e+00 1.569929999999999914e+01 5.954629999999999868e+00 1.149499999999999966e+00 1.570139999999999958e+01 3.966120000000000090e+00 4.590840000000000032e+00 1.569880000000000031e+01 2.030000000000000120e-03 3.930000000000000333e-03 1.010999999999999943e+01 -1.978799999999999892e+00 3.440560000000000063e+00 1.011129999999999995e+01 3.969520000000000159e+00 7.100000000000000191e-04 1.010619999999999941e+01 1.986199999999999966e+00 3.435989999999999878e+00 1.010459999999999958e+01 3.970610000000000195e+00 6.872449999999999726e+00 1.363209999999999944e+01 -1.980679999999999996e+00 3.438499999999999890e+00 1.363990000000000080e+01 3.972939999999999916e+00 3.789999999999999966e-03 1.363230000000000075e+01 1.983119999999999994e+00 3.436630000000000074e+00 1.363080000000000069e+01 3.964809999999999945e+00 6.870820000000000149e+00 1.715099999999999980e+01 5.945479999999999876e+00 3.434330000000000105e+00 1.715279999999999916e+01 3.964459999999999873e+00 2.079999999999999818e-03 1.715419999999999945e+01 1.983370000000000077e+00 3.437250000000000139e+00 1.715700000000000003e+01
7.640789999999999971e+00 4.944619999999999571e+00 8.403660000000000352e+00 3.637389999999999901e+00 1.802189999999999959e+00 8.787250000000000227e+00 4.438030000000000364e+00 5.133770000000000167e+00 8.637000000000000455e+00 4.159220000000000361e+00 5.798329999999999984e+00 1.501750000000000007e+01 3.553129999999999900e+00 5.537000000000000255e-02 1.946559999999999846e+01 2.855160000000000142e+00 3.996300000000000185e+00 1.838190000000000168e+01 7.799280000000000435e+00 5.564090000000000202e+00 1.567249999999999943e+01 4.536570000000000213e+00 2.543599999999999750e-01 1.258730000000000082e+01 2.465250000000000163e+00 8.977199999999999624e-01 1.097419999999999973e+01 5.840290000000000425e+00 3.330130000000000035e+00 1.001469999999999949e+01 2.847220000000000084e+00 3.636899999999999800e+00 7.140600000000000058e+00 6.299500000000000099e+00 6.460259999999999891e+00 6.915269999999999584e+00 3.335760000000000058e+00 3.722000000000000308e-02 1.677120000000000033e+01 8.904790000000000205e+00 5.792779999999999596e+00 1.063809999999999967e+01 6.043949999999999712e+00 4.284150000000000347e+00 1.393149999999999977e+01 2.221989999999999910e+00 3.515019999999999811e+00 1.568510000000000026e+01 6.541089999999999627e+00 8.512699999999999712e-01 1.409970000000000034e+01 7.802959999999999674e+00 4.327849999999999753e+00 1.976500000000000057e+01 3.804429999999999978e+00 5.609060000000000379e+00 5.454799999999999649e-01 4.264050000000000118e+00 2.978489999999999860e+00 1.683300000000000074e-01
1.983289999999999997e+00 1.145429999999999948e+00 1.156259999999999977e+01 2.340000000000000066e-03 4.586240000000000094e+00 1.156129999999999924e+01 5.951710000000000278e+00 1.149489999999999901e+00 1.156300000000000061e+01 3.976259999999999906e+00 4.579620000000000246e+00 1.156320000000000014e+01 1.992769999999999930e+00 1.150009999999999977e+00 1.569480000000000075e+01 4.199999999999999740e-03 4.584749999999999659e+00 1.569580000000000020e+01 5.952919999999999767e+00 1.144660000000000011e+00 1.569640000000000057e+01 3.971010000000000151e+00 4.585259999999999891e+00 1.570079999999999920e+01 3.968350000000000044e+00 6.875110000000000277e+00 1.010490000000000066e+01 -1.980250000000000066e+00 3.439029999999999809e+00 1.010940000000000083e+01 5.599999999999999509e-04 6.870569999999999844e+00 1.009800000000000075e+01 1.992869999999999919e+00 3.433469999999999800e+00 1.010650000000000048e+01 6.089999999999999927e-03 2.309999999999999987e-03 1.362809999999999988e+01 -1.981670000000000043e+00 3.432879999999999932e+00 1.362969999999999970e+01 3.200000000000000262e-04 6.873479999999999812e+00 1.363630000000000031e+01 1.990769999999999929e+00 3.443270000000000053e+00 1.362940000000000040e+01 1.069999999999999988e-03 2.220000000000000185e-03 1.715299999999999869e+01 5.953859999999999708e+00 3.436999999999999833e+00 1.715599999999999881e+01 3.965199999999999836e+00 7.459999999999999618e-03 1.715879999999999939e+01 1.989630000000000010e+00 3.434550000000000214e+00 1.715360000000000085e+01
1.981880000000000086e+00 1.141459999999999919e+00 1.155330000000000013e+01 -2.619999999999999933e-03 4.584529999999999994e+00 1.156300000000000061e+01 5.951889999999999681e+00 1.149170000000000025e+00 1.156269999999999953e+01 3.974720000000000031e+00 4.590580000000000105e+00 1.156150000000000055e+01 1.989789999999999948e+00 1.138460000000000027e+00 1.569519999999999982e+01 -2.079999999999999818e-03 4.580750000000000099e+00 1.569929999999999914e+01 5.949300000000000033e+00 1.144390000000000018e+00 1.569619999999999926e+01 3.974089999999999900e+00 4.587920000000000442e+00 1.569289999999999985e+01 7.933309999999999640e+00 3.830000000000000071e-03 1.011209999999999987e+01 -1.981530000000000014e+00 3.441209999999999880e+00 1.010820000000000007e+01 3.962309999999999999e+00 5.389999999999999826e-03 1.010389999999999944e+01 1.987209999999999921e+00 3.435319999999999929e+00 1.009950000000000081e+01 7.936890000000000001e+00 1.039999999999999909e-03 1.363690000000000069e+01 5.953850000000000087e+00 3.429520000000000124e+00 1.363250000000000028e+01 -1.619999999999999912e-03 6.874060000000000059e+00 1.363569999999999993e+01 1.988420000000000076e+00 3.439010000000000122e+00 1.363059999999999938e+01 -3.499999999999999964e-04 1.569999999999999998e-03 1.715469999999999828e+01 5.954390000000000072e+00 3.429800000000000182e+00 1.715569999999999951e+01 4.429999999999999910e-03 6.870190000000000019e+00 1.715009999999999835e+01 1.984699999999999909e+00 3.438400000000000123e+00 1.715490000000000137e+01
1.982869999999999910e+00 1.146730000000000027e+00 1.156049999999999933e+01 2.510000000000000078e-03 4.578430000000000000e+00 1.156150000000000055e+01 5.955309999999999881e+00 1.145350000000000090e+00 1.156049999999999933e+01 3.973580000000000112e+00 4.589529999999999887e+00 1.156189999999999962e+01 1.987020000000000008e+00 1.142719999999999958e+00 1.569469999999999921e+01 -2.929999999999999879e-03 4.582259999999999778e+00 1.569369999999999976e+01 5.955799999999999983e+00 1.142200000000000104e+00 1.570110000000000028e+01 3.964409999999999989e+00 4.587559999999999860e+00 1.569759999999999955e+01 7.934560000000000279e+00 2.700000000000000143e-03 1.010030000000000072e+01 5.951789999999999914e+00 3.440100000000000158e+00 1.010239999999999938e+01 3.969040000000000123e+00 6.999999999999999929e-04 1.010519999999999996e+01 1.983519999999999950e+00 3.436710000000000154e+00 1.010800000000000054e+01 -3.965100000000000069e+00 6.874900000000000233e+00 1.363630000000000031e+01 -1.980620000000000047e+00 3.442800000000000082e+00 1.363530000000000086e+01 2.929999999999999879e-03 6.871419999999999639e+00 1.363589999999999947e+01 1.986050000000000093e+00 3.438289999999999846e+00 1.363530000000000086e+01 7.936329999999999885e+00 3.559999999999999797e-03 1.715299999999999869e+01 5.950750000000000206e+00 3.437139999999999862e+00 1.715109999999999957e+01 6.700000000000000226e-04 6.871380000000000265e+00 1.715080000000000027e+01 1.986779999999999990e+00 3.441479999999999873e+00 1.715380000000000038e+01
1.963179999999999925e+00 8.629400000000000404e-01 9.721439999999999415e+00 2.405440000000000023e+00 5.252519999999999634e+00 9.149580000000000268e+00 9.166499999999999204e+00 3.718859999999999832e+00 1.387700000000000067e+01 5.828120000000000189e+00 8.191399999999999793e-01 1.208000000000000007e+01 1.746520000000000072e+00 2.147850000000000037e+00 1.742229999999999990e+01 8.104309999999999903e+00 6.724820000000000242e+00 1.678209999999999980e+01 3.572569999999999801e+00 5.544190000000000396e+00 1.824119999999999919e+01 4.923490000000000144e+00 5.996679999999999566e+00 1.300619999999999976e+01 7.899989999999999846e+00 6.181699999999999973e-01 8.230660000000000309e+00 4.581330000000000346e+00 1.602209999999999912e+00 9.883760000000000545e+00 5.272619999999999862e+00 5.402689999999999770e+00 1.033450000000000024e+01 1.687079999999999913e+00 2.676029999999999909e+00 7.881759999999999877e+00 4.169400000000000439e+00 2.596899999999999764e-01 1.427009999999999934e+01 3.937539999999999818e+00 4.204629999999999868e+00 1.427469999999999928e+01 6.268099999999999783e-01 1.083760000000000057e+00 1.307980000000000054e+01 8.510669999999999291e+00 5.312800000000000189e+00 1.140109999999999957e+01 5.833639999999999937e+00 6.794999999999999929e+00 1.843070000000000164e+01 7.895489999999999675e+00 3.913839999999999986e+00 1.621440000000000126e+01 7.211479999999999890e+00 5.912199999999999678e-01 1.831159999999999854e+01 2.836939999999999795e+00 3.548890000000000100e+00 1.946219999999999928e+01
1.841567999999999827e+01 8.104700000000000237e-01 1.166820000000000057e+01 1.784027999999999992e+01 3.150700000000000056e+00 1.270659999999999989e+01 1.440020999999999951e+01 4.260959999999999859e+00 1.332990000000000030e+01 1.544711000000000034e+01 7.385599999999999943e-01 1.402059999999999995e+01 6.103419999999999845e+00 4.833590000000000053e+00 1.350999999999999979e+01 7.717920000000000336e+00 1.865920000000000023e+00 1.364739999999999931e+01 9.361219999999999430e+00 4.757060000000000066e+00 1.519609999999999950e+01 1.099286000000000030e+01 8.757399999999999629e-01 1.502669999999999995e+01 1.691667999999999950e+01 5.077469999999999928e+00 1.388749999999999929e+01 1.819938000000000144e+01 9.884500000000000508e-01 1.428659999999999997e+01 1.418914999999999971e+01 5.797200000000000131e+00 1.113739999999999952e+01 -1.281090000000000062e+00 2.762770000000000170e+00 1.105530000000000079e+01 1.349605000000000032e+01 2.432119999999999838e+00 1.502319999999999922e+01 1.166900000000000048e+01 5.815360000000000085e+00 1.456150000000000055e+01 8.308790000000000120e+00 4.138119999999999798e+00 1.255690000000000062e+01 1.563729000000000013e+01 2.037049999999999805e+00 1.154429999999999978e+01 9.072490000000000165e+00 2.242589999999999861e+00 1.650840000000000174e+01 7.085619999999999585e+00 5.929289999999999949e+00 1.609949999999999903e+01 5.012489999999999668e+00 2.613459999999999894e+00 1.400730000000000075e+01 5.060590000000000366e+00 7.129299999999999748e+00 1.282709999999999972e+01
1.982869999999999910e+00 1.146730000000000027e+00 1.156049999999999933e+01 2.510000000000000078e-03 4.578430000000000000e+00 1.156150000000000055e+01 5.955309999999999881e+00 1.145350000000000090e+00 1.156049999999999933e+01 3.973580000000000112e+00 4.589529999999999887e+00 1.156189999999999962e+01 1.987020000000000008e+00 1.142719999999999958e+00 1.569469999999999921e+01 -2.929999999999999879e-03 4.582259999999999778e+00 1.569369999999999976e+01 5.955799999999999983e+00 1.142200000000000104e+00 1.570110000000000028e+01 3.964409999999999989e+00 4.587559999999999860e+00 1.569759999999999955e+01 7.934560000000000279e+00 2.700000000000000143e-03 1.010030000000000072e+01 5.951789999999999914e+00 3.440100000000000158e+00 1.010239999999999938e+01 3.969040000000000123e+00 6.999999999999999929e-04 1.010519999999999996e+01 1.983519999999999950e+00 3.436710000000000154e+00 1.010800000000000054e+01 -3.965100000000000069e+00 6.874900000000000233e+00 1.363630000000000031e+01 -1.980620000000000047e+00 3.442800000000000082e+00 1.363530000000000086e+01 2.929999999999999879e-03 6.871419999999999639e+00 1.363589999999999947e+01 1.986050000000000093e+00 3.438289999999999846e+00 1.363530000000000086e+01 7.936329999999999885e+00 3.559999999999999797e-03 1.715299999999999869e+01 5.950750000000000206e+00 3.437139999999999862e+00 1.715109999999999957e+01 6.700000000000000226e-04 6.871380000000000265e+00 1.715080000000000027e+01 1.986779999999999990e+00 3.441479999999999873e+00 1.715380000000000038e+01
1.978949999999999987e+00 1.148060000000000080e+00 1.155579999999999963e+01 2.390000000000000197e-03 4.581690000000000040e+00 1.155550000000000033e+01 5.956500000000000128e+00 1.151869999999999949e+00 1.156799999999999962e+01 3.977250000000000174e+00 4.580589999999999939e+00 1.156259999999999977e+01 1.981160000000000032e+00 1.140160000000000062e+00 1.569289999999999985e+01 -4.530000000000000172e-03 4.584349999999999703e+00 1.569430000000000014e+01 5.957539999999999836e+00 1.145920000000000050e+00 1.569359999999999999e+01 3.965250000000000163e+00 4.578630000000000422e+00 1.569630000000000081e+01 7.934590000000000032e+00 4.709999999999999777e-03 1.010369999999999990e+01 -1.986159999999999926e+00 3.441689999999999916e+00 1.010539999999999949e+01 8.499999999999999526e-04 6.874579999999999913e+00 1.010529999999999973e+01 1.985069999999999890e+00 3.437749999999999861e+00 1.010580000000000034e+01 7.934499999999999886e+00 4.930000000000000354e-03 1.363419999999999987e+01 -1.984720000000000040e+00 3.438079999999999803e+00 1.363499999999999979e+01 3.976890000000000036e+00 1.660000000000000017e-03 1.363020000000000032e+01 1.986799999999999899e+00 3.437769999999999992e+00 1.363770000000000060e+01 -3.963940000000000019e+00 6.869959999999999845e+00 1.715030000000000143e+01 -1.985449999999999937e+00 3.440380000000000216e+00 1.715240000000000009e+01 3.966680000000000206e+00 5.349999999999999721e-03 1.715559999999999974e+01 1.987740000000000062e+00 3.441840000000000011e+00 1.715840000000000032e+01
1.985510000000000108e+00 1.147459999999999924e+00 1.156109999999999971e+01 -2.340000000000000066e-03 4.587650000000000006e+00 1.156750000000000078e+01 5.956739999999999924e+00 1.141029999999999989e+00 1.156700000000000017e+01 3.965770000000000017e+00 4.583899999999999864e+00 1.155920000000000059e+01 1.984059999999999935e+00 1.144509999999999916e+00 1.569849999999999923e+01 2.180000000000000080e-03 4.585020000000000095e+00 1.569800000000000040e+01 5.959749999999999659e+00 1.143860000000000099e+00 1.570270000000000010e+01 3.970050000000000079e+00 4.584109999999999907e+00 1.569740000000000002e+01 7.935800000000000409e+00 4.600000000000000139e-04 1.010280000000000022e+01 -1.984080000000000066e+00 3.436949999999999950e+00 1.010420000000000051e+01 6.400000000000000524e-04 6.874559999999999782e+00 1.010560000000000080e+01 1.988739999999999952e+00 3.430740000000000123e+00 1.010909999999999975e+01 -3.966320000000000068e+00 6.872300000000000075e+00 1.363310000000000066e+01 -1.984180000000000055e+00 3.437510000000000066e+00 1.363419999999999987e+01 3.969190000000000218e+00 1.299999999999999940e-03 1.362950000000000017e+01 1.984320000000000084e+00 3.437069999999999848e+00 1.363530000000000086e+01 3.968269999999999964e+00 6.872410000000000352e+00 1.715749999999999886e+01 -1.983719999999999928e+00 3.438790000000000013e+00 1.715380000000000038e+01 8.800000000000000313e-04 6.874520000000000408e+00 1.715810000000000102e+01 1.981260000000000021e+00 3.439410000000000078e+00 1.715040000000000120e+01
1.984879999999999978e+00 1.145960000000000090e+00 1.156049999999999933e+01 -4.969999999999999592e-03 4.575969999999999871e+00 1.156020000000000003e+01 5.955940000000000012e+00 1.145289999999999919e+00 1.155879999999999974e+01 3.965520000000000156e+00 4.577359999999999651e+00 1.156179999999999986e+01 1.981959999999999944e+00 1.152800000000000047e+00 1.570330000000000048e+01 -3.959999999999999978e-03 4.585539999999999949e+00 1.569849999999999923e+01 5.958249999999999602e+00 1.150400000000000089e+00 1.569280000000000008e+01 3.970169999999999977e+00 4.584380000000000344e+00 1.570560000000000045e+01 -5.800000000000000034e-04 1.059999999999999961e-03 1.011239999999999917e+01 5.950230000000000352e+00 3.443229999999999791e+00 1.011299999999999955e+01 3.972789999999999822e+00 2.190000000000000106e-03 1.010420000000000051e+01 1.983800000000000008e+00 3.436220000000000052e+00 1.010369999999999990e+01 4.230000000000000253e-03 6.499999999999999702e-03 1.363909999999999911e+01 -1.983070000000000110e+00 3.444139999999999979e+00 1.364020000000000010e+01 3.970790000000000042e+00 5.199999999999999544e-04 1.363819999999999943e+01 1.981549999999999923e+00 3.434270000000000156e+00 1.363219999999999921e+01 1.709999999999999932e-03 1.399999999999999877e-04 1.715530000000000044e+01 -1.981759999999999966e+00 3.440960000000000019e+00 1.716029999999999944e+01 3.975480000000000125e+00 1.569999999999999998e-03 1.716079999999999828e+01 1.989679999999999893e+00 3.443690000000000140e+00 1.715259999999999962e+01
2.606730000000000214e+00 1.723910000000000053e+00 1.226159999999999961e+01 4.889700000000000157e-01 4.862510000000000332e+00 1.129579999999999984e+01 6.700149999999999828e+00 1.525560000000000027e+00 1.061170000000000080e+01 4.532630000000000159e+00 5.149230000000000196e+00 1.120589999999999975e+01 2.644330000000000069e+00 1.188779999999999948e+00 1.597560000000000002e+01 5.158199999999999452e-01 4.643130000000000202e+00 1.574920000000000009e+01 6.630230000000000068e+00 1.338030000000000053e+00 1.611980000000000146e+01 4.743190000000000239e+00 5.212839999999999918e+00 1.571260000000000012e+01 5.197000000000000508e-01 5.778200000000000003e-01 1.029010000000000069e+01 -1.834600000000000009e+00 4.134149999999999991e+00 9.976679999999999993e+00 4.309879999999999711e+00 2.327299999999999924e-01 1.021690000000000076e+01 2.537679999999999936e+00 3.395039999999999836e+00 1.009060000000000024e+01 3.574300000000000033e+00 4.375079999999999636e+00 1.343319999999999936e+01 5.783830000000000027e+00 1.852719999999999922e+00 1.353659999999999997e+01 -1.981170000000000098e+00 6.613800000000000345e+00 1.380129999999999946e+01 -4.386800000000000144e-01 3.269930000000000003e+00 1.342040000000000077e+01 2.195699999999999874e-01 3.002900000000000014e-01 1.746369999999999933e+01 -1.931810000000000027e+00 3.912679999999999936e+00 1.708719999999999928e+01 5.304100000000000481e-01 6.779440000000000133e+00 1.739420000000000144e+01 2.533349999999999991e+00 3.532099999999999795e+00 1.703109999999999857e+01
1.984720000000000040e+00 1.145839999999999970e+00 1.156109999999999971e+01 3.000000000000000076e-05 4.583420000000000272e+00 1.156109999999999971e+01 5.954089999999999883e+00 1.145839999999999970e+00 1.156109999999999971e+01 3.969399999999999817e+00 4.583420000000000272e+00 1.156109999999999971e+01 1.984720000000000040e+00 1.145839999999999970e+00 1.569780000000000086e+01 3.000000000000000076e-05 4.583420000000000272e+00 1.569780000000000086e+01 5.954089999999999883e+00 1.145839999999999970e+00 1.569780000000000086e+01 3.969399999999999817e+00 4.583420000000000272e+00 1.569780000000000086e+01 -3.969300000000000050e+00 6.875110000000000277e+00 1.010609999999999964e+01 -1.984609999999999985e+00 3.437530000000000197e+00 1.010609999999999964e+01 6.999999999999999387e-05 6.875110000000000277e+00 1.010609999999999964e+01 1.984760000000000080e+00 3.437530000000000197e+00 1.010609999999999964e+01 7.938570000000000348e+00 1.000000000000000048e-04 1.363480000000000025e+01 5.953879999999999839e+00 3.437669999999999781e+00 1.363480000000000025e+01 3.969199999999999839e+00 1.000000000000000048e-04 1.363480000000000025e+01 1.984509999999999996e+00 3.437669999999999781e+00 1.363480000000000025e+01 -3.969300000000000050e+00 6.875110000000000277e+00 1.715520000000000067e+01 -1.984609999999999985e+00 3.437530000000000197e+00 1.715520000000000067e+01 6.999999999999999387e-05 6.875110000000000277e+00 1.715520000000000067e+01 1.984760000000000080e+00 3.437530000000000197e+00 1.715520000000000067e+01
1.983289999999999997e+00 1.145429999999999948e+00 1.156259999999999977e+01 2.340000000000000066e-03 4.586240000000000094e+00 1.156129999999999924e+01 5.951710000000000278e+00 1.149489999999999901e+00 1.156300000000000061e+01 3.976259999999999906e+00 4.579620000000000246e+00 1.156320000000000014e+01 1.992769999999999930e+00 1.150009999999999977e+00 1.569480000000000075e+01 4.199999999999999740e-03 4.584749999999999659e+00 1.569580000000000020e+01 5.952919999999999767e+00 1.144660000000000011e+00 1.569640000000000057e+01 3.971010000000000151e+00 4.585259999999999891e+00 1.570079999999999920e+01 3.968350000000000044e+00 6.875110000000000277e+00 1.010490000000000066e+01 -1.980250000000000066e+00 3.439029999999999809e+00 1.010940000000000083e+01 5.599999999999999509e-04 6.870569999999999844e+00 1.009800000000000075e+01 1.992869999999999919e+00 3.433469999999999800e+00 1.010650000000000048e+01 6.089999999999999927e-03 2.309999999999999987e-03 1.362809999999999988e+01 -1.981670000000000043e+00 3.432879999999999932e+00 1.362969999999999970e+01 3.200000000000000262e-04 6.873479999999999812e+00 1.363630000000000031e+01 1.990769999999999929e+00 3.443270000000000053e+00 1.362940000000000040e+01 1.069999999999999988e-03 2.220000000000000185e-03 1.715299999999999869e+01 5.953859999999999708e+00 3.436999999999999833e+00 1.715599999999999881e+01 3.965199999999999836e+00 7.459999999999999618e-03 1.715879999999999939e+01 1.989630000000000010e+00 3.434550000000000214e+00 1.715360000000000085e+01
2.595180000000000042e+00 6.922399999999999665e-01 1.228159999999999918e+01 7.522900000000000142e-01 4.651690000000000325e+00 1.073750000000000071e+01 6.976149999999999629e+00 1.566540000000000044e+00 1.101559999999999917e+01 4.101960000000000051e+00 4.963390000000000413e+00 1.107450000000000045e+01 1.927740000000000009e+00 1.211079999999999934e+00 1.632610000000000028e+01 -1.712700000000000056e-01 4.827130000000000365e+00 1.556349999999999945e+01 6.692199999999999704e+00 1.466360000000000108e+00 1.592999999999999972e+01 3.911010000000000097e+00 5.280429999999999957e+00 1.579620000000000068e+01 5.367199999999999749e-01 9.110000000000000042e-02 1.021250000000000036e+01 -1.842640000000000056e+00 4.290359999999999729e+00 1.094410000000000061e+01 4.764949999999999797e+00 1.121999999999999942e-01 1.026820000000000022e+01 2.604019999999999779e+00 3.715170000000000083e+00 9.320819999999999439e+00 2.349569999999999936e+00 6.236500000000000377e+00 1.360050000000000026e+01 -2.650399999999999978e-01 2.337919999999999998e+00 1.379030000000000022e+01 -1.969740000000000046e+00 6.303090000000000082e+00 1.413470000000000049e+01 2.289460000000000051e+00 3.621150000000000091e+00 1.323249999999999993e+01 -2.972999999999999948e-02 1.891899999999999971e-01 1.764489999999999981e+01 6.120330000000000048e+00 3.762449999999999850e+00 1.701810000000000045e+01 4.509780000000000122e+00 7.302999999999999770e-02 1.688380000000000081e+01 1.764469999999999983e+00 3.731100000000000083e+00 1.702169999999999916e+01
1.987419999999999964e+00 1.147829999999999906e+00 1.156170000000000009e+01 -7.069999999999999896e-03 4.582270000000000287e+00 1.156039999999999957e+01 5.953960000000000363e+00 1.145950000000000024e+00 1.156099999999999994e+01 3.965749999999999886e+00 4.585340000000000416e+00 1.156409999999999982e+01 1.983409999999999895e+00 1.146120000000000028e+00 1.569929999999999914e+01 -5.800000000000000034e-04 4.581979999999999720e+00 1.569929999999999914e+01 5.954629999999999868e+00 1.149499999999999966e+00 1.570139999999999958e+01 3.966120000000000090e+00 4.590840000000000032e+00 1.569880000000000031e+01 2.030000000000000120e-03 3.930000000000000333e-03 1.010999999999999943e+01 -1.978799999999999892e+00 3.440560000000000063e+00 1.011129999999999995e+01 3.969520000000000159e+00 7.100000000000000191e-04 1.010619999999999941e+01 1.986199999999999966e+00 3.435989999999999878e+00 1.010459999999999958e+01 3.970610000000000195e+00 6.872449999999999726e+00 1.363209999999999944e+01 -1.980679999999999996e+00 3.438499999999999890e+00 1.363990000000000080e+01 3.972939999999999916e+00 3.789999999999999966e-03 1.363230000000000075e+01 1.983119999999999994e+00 3.436630000000000074e+00 1.363080000000000069e+01 3.964809999999999945e+00 6.870820000000000149e+00 1.715099999999999980e+01 5.945479999999999876e+00 3.434330000000000105e+00 1.715279999999999916e+01 3.964459999999999873e+00 2.079999999999999818e-03 1.715419999999999945e+01 1.983370000000000077e+00 3.437250000000000139e+00 1.715700000000000003e+01