-7.010999999999999871e-03 5.564000000000000369e-03 -2.841199999999999976e-02 3.195699999999999930e-02 -4.661099999999999965e-02 -2.016599999999999990e-02 4.470299999999999968e-02 -2.872399999999999953e-02 8.567999999999999228e-03 -6.276999999999999594e-03 4.434999999999999706e-03 -3.487099999999999922e-02 -1.504300000000000082e-02 -2.033400000000000138e-02 4.918700000000000155e-02 -2.670300000000000104e-02 -5.800000000000000034e-05 6.202799999999999980e-02 -5.320000000000000076e-03 8.947000000000000092e-03 4.252899999999999736e-02 1.423800000000000066e-02 3.080499999999999905e-02 3.420700000000000129e-02 -1.188900000000000026e-02 -4.691999999999999990e-03 1.021780000000000049e-01 -1.577999999999999976e-03 5.015900000000000220e-02 1.711299999999999974e-02 -3.010099999999999928e-02 1.732000000000000033e-03 4.221899999999999958e-02 -2.801999999999999803e-03 1.181699999999999938e-02 1.047130000000000005e-01 5.571999999999999696e-03 -3.612999999999999892e-03 -1.939899999999999958e-02 -4.410999999999999990e-03 -4.017999999999999870e-03 -3.047700000000000062e-02 -4.655000000000000283e-03 -6.553999999999999930e-03 -2.510199999999999931e-02 -2.582399999999999973e-02 1.967700000000000005e-02 -2.633100000000000024e-02 1.026900000000000035e-02 -1.696000000000000025e-03 -6.960800000000000320e-02 4.587600000000000011e-02 1.110799999999999982e-02 -9.091000000000000469e-02 -2.509999999999999753e-04 -1.232899999999999968e-02 -5.935300000000000298e-02 -1.074699999999999961e-02 -1.561599999999999967e-02 -5.811399999999999899e-02
2.541300000000000156e-02 -2.277500000000000011e-02 -2.550399999999999889e-02 -4.242000000000000111e-03 3.202300000000000285e-02 -9.856999999999999443e-03 -2.401299999999999962e-02 -2.862800000000000067e-02 -4.074799999999999950e-02 -3.697899999999999798e-02 3.422700000000000048e-02 -3.025500000000000064e-02 2.371099999999999944e-02 5.924600000000000005e-02 5.791099999999999720e-02 4.295500000000000013e-02 1.368600000000000025e-02 7.281300000000000272e-02 -1.897499999999999881e-02 -1.210100000000000064e-02 6.363699999999999912e-02 -3.559000000000000098e-03 -8.571000000000000493e-03 3.689200000000000118e-02 -2.101000000000000003e-03 -3.436800000000000271e-02 8.296900000000000108e-02 1.498299999999999979e-02 -2.414499999999999980e-02 4.395799999999999708e-02 -4.381999999999999611e-03 2.560399999999999829e-02 8.342700000000000116e-02 1.770700000000000052e-02 1.114500000000000039e-02 6.392299999999999371e-02 1.206899999999999987e-02 2.058600000000000013e-02 -2.728799999999999976e-02 -3.017000000000000150e-03 1.576299999999999923e-02 -3.071000000000000119e-02 7.106999999999999602e-03 -1.162999999999999971e-02 -6.353000000000000140e-03 7.891000000000000444e-03 -6.637999999999999803e-03 -6.399000000000000174e-03 -2.763699999999999837e-02 6.499999999999999702e-03 -5.133800000000000169e-02 1.131700000000000067e-02 -2.560300000000000076e-02 -6.576899999999999413e-02 9.598999999999999894e-03 -1.294099999999999938e-02 -1.064709999999999962e-01 -4.784800000000000164e-02 -3.137800000000000311e-02 -1.048369999999999996e-01
2.180000000000000134e-04 -8.520000000000000013e-04 -2.059100000000000166e-02 2.469999999999999865e-04 -8.840000000000000201e-04 -2.060199999999999879e-02 2.190000000000000106e-04 -8.459999999999999638e-04 -2.058799999999999866e-02 2.590000000000000071e-04 -8.840000000000000201e-04 -2.060700000000000032e-02 2.130000000000000003e-04 -8.419999999999999750e-04 3.839599999999999957e-02 2.420000000000000005e-04 -8.739999999999999939e-04 3.840799999999999770e-02 2.120000000000000031e-04 -8.360000000000000460e-04 3.839499999999999857e-02 2.530000000000000239e-04 -8.750000000000000182e-04 3.841599999999999876e-02 3.350000000000000113e-04 -8.620000000000000275e-04 6.599700000000000011e-02 3.130000000000000187e-04 -8.329999999999999731e-04 6.601899999999999435e-02 3.280000000000000038e-04 -8.620000000000000275e-04 6.599800000000000111e-02 3.139999999999999888e-04 -8.390000000000000105e-04 6.601200000000000123e-02 -1.098000000000000018e-03 3.419000000000000164e-03 -1.514800000000000001e-02 -1.129000000000000012e-03 3.429000000000000190e-03 -1.514899999999999927e-02 -1.101999999999999898e-03 3.419999999999999863e-03 -1.514899999999999927e-02 -1.126999999999999964e-03 3.432999999999999854e-03 -1.514899999999999927e-02 3.379999999999999758e-04 -8.660000000000000163e-04 -6.865599999999999481e-02 3.159999999999999832e-04 -8.379999999999999862e-04 -6.867600000000000093e-02 3.310000000000000225e-04 -8.649999999999999920e-04 -6.865499999999999381e-02 3.179999999999999776e-04 -8.440000000000000236e-04 -6.866999999999999493e-02
4.800999999999999712e-03 4.329999999999999648e-03 -1.215600000000000014e-02 6.426999999999999380e-02 1.382199999999999922e-02 -1.265999999999999981e-03 -1.017400000000000075e-02 -1.133900000000000012e-02 -8.023000000000000617e-03 -2.245000000000000034e-03 2.268000000000000051e-03 -2.888500000000000095e-02 -5.310000000000000050e-04 9.051000000000000018e-03 1.756800000000000028e-02 -1.951699999999999963e-02 -5.126999999999999613e-03 3.955499999999999988e-02 -3.312999999999999973e-02 -1.337700000000000000e-02 4.499999999999999660e-03 -3.266999999999999939e-03 -4.815900000000000042e-02 2.582999999999999793e-03 -7.401999999999999726e-03 -7.267000000000000022e-03 4.537200000000000261e-02 -6.359399999999999775e-02 -1.482299999999999937e-02 4.391300000000000064e-02 2.829999999999999942e-04 -1.063700000000000062e-02 5.562600000000000183e-02 -4.734000000000000360e-03 2.202899999999999997e-02 7.113500000000000378e-02 1.320900000000000026e-02 -1.783500000000000016e-02 -3.801000000000000125e-03 2.470999999999999933e-02 9.499999999999999764e-03 -3.439999999999999915e-03 1.660100000000000117e-02 1.893200000000000091e-02 -2.116099999999999925e-02 4.091000000000000018e-03 -6.200000000000000270e-05 -1.168800000000000047e-02 7.680000000000000195e-03 4.462599999999999900e-02 -1.763199999999999837e-02 1.400599999999999935e-02 2.712399999999999881e-02 -2.779999999999999832e-02 4.595000000000000126e-03 -2.734100000000000072e-02 -6.561400000000000565e-02 -9.653000000000000122e-03 4.284999999999999747e-03 -7.878699999999999593e-02
1.233287000000000022e+00 -8.682819999999999983e-01 1.806602000000000041e+00 6.344220000000000415e-01 -1.402930000000000010e-01 1.105310000000000015e+00 -3.253929999999999878e-01 6.043520000000000003e-01 1.102815000000000101e+00 -4.458869999999999778e-01 -7.392229999999999634e-01 -7.681040000000000090e-01 3.416930000000000245e-01 -4.998759999999999870e-01 8.216369999999999507e-01 -1.414849999999999997e-01 -9.867700000000000082e-02 -9.975589999999999735e-01 -5.752620000000000511e-01 2.081230000000000024e-01 -8.888899999999999579e-01 -3.899730000000000141e-01 -9.815399999999999681e-01 -1.192250000000000032e+00 2.285860000000000114e-01 -9.379200000000000037e-02 -5.155769999999999520e-01 -2.986070000000000113e-01 -2.791400000000000131e-02 -1.211797000000000013e+00 -7.456530000000000102e-01 4.373779999999999890e-01 -3.996770000000000045e-01 -6.136019999999999808e-01 3.802800000000000069e-01 -1.874599999999999878e-01 -3.101650000000000240e-01 1.000979999999999981e+00 8.444599999999999884e-01 -2.947779999999999845e-01 -1.950880000000000114e-01 -1.017927999999999944e+00 1.086329999999999935e-01 1.121299999999999963e+00 -5.805709999999999482e-01 1.450409000000000059e+00 2.704200000000000007e-02 1.040084000000000009e+00 5.138730000000000242e-01 -3.339110000000000134e-01 1.029852999999999907e+00 -1.498653999999999931e+00 7.536629999999999718e-01 3.219049999999999967e-01 5.919990000000000530e-01 9.220000000000000417e-02 -3.777929999999999899e-01 5.365560000000000329e-01 -6.467209999999999903e-01 6.493899999999999673e-02
7.739999999999999485e-04 -2.685900000000000093e-02 -5.394299999999999790e-02 3.320499999999999841e-02 -1.161300000000000006e-02 -3.613100000000000339e-02 8.918000000000000579e-03 -2.893300000000000038e-02 -4.670799999999999952e-02 -2.410899999999999849e-02 3.127499999999999725e-02 -3.083199999999999830e-02 -3.437400000000000178e-02 -2.804999999999999855e-02 2.887400000000000036e-02 -9.794999999999999887e-03 1.465600000000000062e-02 7.123500000000000665e-02 -4.688000000000000327e-03 1.202199999999999970e-02 5.122000000000000164e-02 7.974000000000000185e-03 -1.559999999999999972e-03 3.154900000000000065e-02 -1.636900000000000160e-02 -1.171699999999999998e-02 8.496700000000000086e-02 2.158999999999999895e-03 2.854999999999999899e-03 2.789900000000000019e-02 -2.489999999999999809e-04 2.904800000000000090e-02 1.292550000000000088e-01 -2.042100000000000165e-02 1.822999999999999968e-03 7.416399999999999382e-02 3.309000000000000136e-02 1.008299999999999995e-02 -1.098400000000000071e-02 -2.183000000000000045e-03 -1.953200000000000075e-02 -2.275000000000000112e-03 9.598999999999999894e-03 -3.658999999999999926e-03 -3.431000000000000022e-03 -1.802999999999999915e-03 3.044099999999999931e-02 4.772000000000000200e-03 -6.501999999999999967e-03 4.360000000000000160e-03 -8.967700000000000671e-02 2.289300000000000015e-02 1.808099999999999985e-02 -9.560799999999999854e-02 2.791000000000000078e-02 -3.950700000000000045e-02 -7.412000000000000532e-02 -2.603000000000000105e-02 1.678599999999999884e-02 -6.022600000000000176e-02
1.243200000000000034e-02 6.504699999999999371e-02 8.807000000000000592e-03 6.072600000000000220e-02 -4.291999999999999808e-03 -4.363199999999999718e-02 -3.464600000000000318e-02 1.155199999999999977e-02 -1.104300000000000073e-02 -5.558099999999999846e-02 -5.694799999999999862e-02 -2.067099999999999840e-02 -2.669799999999999951e-02 3.853600000000000081e-02 5.361099999999999893e-02 2.067599999999999993e-02 -2.961599999999999996e-02 2.931800000000000031e-02 3.869700000000000223e-02 -2.729999999999999788e-03 2.339600000000000013e-02 -2.743200000000000152e-02 -1.944699999999999901e-02 6.679400000000000615e-02 -1.378200000000000085e-02 -5.908000000000000057e-03 8.828000000000000777e-03 -1.255099999999999966e-02 9.901000000000000079e-03 3.962700000000000250e-02 4.403100000000000069e-02 -2.863200000000000120e-02 7.283900000000000097e-02 -7.919000000000000691e-03 3.022400000000000087e-02 1.163880000000000053e-01 1.980300000000000116e-02 -1.818000000000000171e-02 -3.676000000000000014e-03 3.680000000000000003e-04 -9.084999999999999326e-03 -5.518999999999999601e-03 -1.043000000000000003e-02 -8.909000000000000252e-03 -2.022600000000000092e-02 -4.972999999999999990e-03 1.412199999999999914e-02 -3.204200000000000104e-02 1.010600000000000040e-02 -3.847000000000000159e-03 -7.178800000000000459e-02 -1.550900000000000022e-02 4.087099999999999761e-02 -7.681200000000000527e-02 -2.009000000000000022e-02 3.468999999999999861e-03 -1.644400000000000028e-02 2.277099999999999957e-02 -2.612599999999999992e-02 -1.177559999999999996e-01
3.086000000000000201e-03 -1.501399999999999957e-02 -3.273899999999999727e-02 -2.760800000000000060e-02 2.080299999999999858e-02 -3.075999999999999915e-02 -1.890299999999999966e-02 1.648099999999999912e-02 -3.727199999999999958e-02 -1.141400000000000053e-02 -1.150799999999999913e-02 -3.624299999999999744e-02 -1.975000000000000193e-03 2.998400000000000024e-02 4.279100000000000265e-02 9.672999999999999307e-03 -1.559800000000000075e-02 3.249200000000000005e-02 -2.519899999999999918e-02 1.830999999999999989e-02 1.216199999999999920e-02 1.233599999999999974e-02 -1.115000000000000019e-02 2.667699999999999932e-02 8.503000000000000141e-03 1.592000000000000099e-03 8.623599999999999322e-02 -1.311000000000000099e-03 -1.266199999999999964e-02 8.844299999999999384e-02 -1.126300000000000044e-02 -1.287899999999999982e-02 9.363000000000000489e-02 1.888000000000000095e-02 1.163400000000000024e-02 6.118099999999999927e-02 1.874800000000000078e-02 -8.758999999999999425e-03 -3.412300000000000055e-02 2.453899999999999831e-02 1.101999999999999898e-03 -3.997599999999999765e-02 2.318299999999999875e-02 2.061699999999999991e-02 -1.577299999999999883e-02 1.234799999999999960e-02 -7.001000000000000278e-03 -1.310500000000000033e-02 2.085400000000000101e-02 -2.298999999999999828e-03 -3.613000000000000239e-02 -7.988999999999999574e-03 9.420000000000000205e-04 -6.055200000000000166e-02 -1.950800000000000103e-02 1.694999999999999892e-03 -3.466099999999999737e-02 -2.698199999999999904e-02 -2.629099999999999840e-02 -7.227500000000000591e-02
2.820492000000000221e+00 -6.218709999999999516e-01 2.117964000000000180e+00 2.414060000000000095e-01 -7.800620000000000331e-01 4.596689999999999943e-01 -1.094360000000000055e-01 3.037730000000000152e-01 -1.358193999999999901e+00 -2.277969999999999995e-01 -7.006390000000000118e-01 -2.602110000000000256e-01 1.829560000000000075e-01 -3.596779999999999977e-01 7.108609999999999651e-01 -9.841499999999999693e-01 -5.308810000000000473e-01 -6.406290000000000040e-01 4.229289999999999994e-01 4.239820000000000255e-01 -1.047889999999999933e-01 6.618119999999999559e-01 1.113361000000000045e+00 -1.598792999999999909e+00 -2.460160999999999820e+00 -3.450420000000000154e-01 -1.359564999999999912e+00 -1.741799999999999946e-02 2.520660000000000123e-01 6.761420000000000208e-01 -9.326130000000000253e-01 4.246750000000000247e-01 6.084610000000000296e-01 4.415310000000000068e-01 1.438148999999999900e+00 -4.507869999999999933e-01 1.404080000000000050e-01 1.439229999999999954e-01 2.237339999999999884e-01 -4.121349999999999736e-01 -1.423828000000000094e+00 1.536934000000000022e+00 -2.564139999999999753e-01 6.817370000000000374e-01 -2.841640000000000277e-01 3.915569999999999884e-01 -2.748450000000000060e-01 8.057269999999999710e-01 1.225509999999999933e-01 5.318730000000000402e-01 -3.893199999999999994e-01 2.331129999999999869e-01 4.590489999999999848e-01 -2.407999999999999863e-01 -9.398399999999999810e-02 -9.865500000000000658e-02 -2.317889999999999950e-01 -1.646489999999999898e-01 -6.370850000000000124e-01 -2.204510000000000081e-01
8.070119999999999516e-01 -2.437759999999999927e+00 -1.030165999999999915e+00 4.452659999999999951e-01 1.616260000000000030e+00 2.098299999999999887e-01 7.978290000000000104e-01 6.201290000000000413e-01 -9.420950000000000157e-01 5.084410000000000318e-01 8.151779999999999582e-01 -6.319620000000000237e-01 -1.079220000000000068e+00 3.642110000000000070e-01 1.124068000000000067e+00 -8.761719999999999509e-01 -6.431940000000000435e-01 8.891189999999999927e-01 -7.821799999999999586e-02 -2.779349999999999876e-01 3.888099999999999890e-02 -1.908910000000000051e-01 -1.414009999999999989e-01 6.624099999999999433e-02 -7.440029999999999699e-01 7.571679999999999522e-01 7.474579999999999558e-01 -4.553309999999999858e-01 2.336739999999999928e-01 6.084110000000000351e-01 -2.856079999999999730e-01 -3.669919999999999849e-01 -6.863199999999999856e-02 -9.774509999999999588e-01 -8.709000000000000075e-02 4.196630000000000082e-01 -2.611470000000000180e-01 -7.700179999999999803e-01 6.123100000000000070e-02 -6.923939999999999539e-01 -5.163919999999999622e-01 4.555489999999999817e-01 1.498998000000000053e+00 2.299370000000000025e-01 -4.740329999999999822e-01 -2.778249999999999886e-01 -4.466840000000000255e-01 4.986909999999999954e-01 4.867079999999999740e-01 2.737550000000000261e-01 -1.678374000000000033e+00 3.210600000000000120e-01 3.537599999999999772e-02 -5.149329999999999741e-01 8.221209999999999907e-01 -5.864549999999999486e-01 -8.691699999999999426e-02 2.308250000000000024e-01 1.328233999999999915e+00 3.079689999999999928e-01
3.086000000000000201e-03 -1.501399999999999957e-02 -3.273899999999999727e-02 -2.760800000000000060e-02 2.080299999999999858e-02 -3.075999999999999915e-02 -1.890299999999999966e-02 1.648099999999999912e-02 -3.727199999999999958e-02 -1.141400000000000053e-02 -1.150799999999999913e-02 -3.624299999999999744e-02 -1.975000000000000193e-03 2.998400000000000024e-02 4.279100000000000265e-02 9.672999999999999307e-03 -1.559800000000000075e-02 3.249200000000000005e-02 -2.519899999999999918e-02 1.830999999999999989e-02 1.216199999999999920e-02 1.233599999999999974e-02 -1.115000000000000019e-02 2.667699999999999932e-02 8.503000000000000141e-03 1.592000000000000099e-03 8.623599999999999322e-02 -1.311000000000000099e-03 -1.266199999999999964e-02 8.844299999999999384e-02 -1.126300000000000044e-02 -1.287899999999999982e-02 9.363000000000000489e-02 1.888000000000000095e-02 1.163400000000000024e-02 6.118099999999999927e-02 1.874800000000000078e-02 -8.758999999999999425e-03 -3.412300000000000055e-02 2.453899999999999831e-02 1.101999999999999898e-03 -3.997599999999999765e-02 2.318299999999999875e-02 2.061699999999999991e-02 -1.577299999999999883e-02 1.234799999999999960e-02 -7.001000000000000278e-03 -1.310500000000000033e-02 2.085400000000000101e-02 -2.298999999999999828e-03 -3.613000000000000239e-02 -7.988999999999999574e-03 9.420000000000000205e-04 -6.055200000000000166e-02 -1.950800000000000103e-02 1.694999999999999892e-03 -3.466099999999999737e-02 -2.698199999999999904e-02 -2.629099999999999840e-02 -7.227500000000000591e-02
2.541300000000000156e-02 -2.277500000000000011e-02 -2.550399999999999889e-02 -4.242000000000000111e-03 3.202300000000000285e-02 -9.856999999999999443e-03 -2.401299999999999962e-02 -2.862800000000000067e-02 -4.074799999999999950e-02 -3.697899999999999798e-02 3.422700000000000048e-02 -3.025500000000000064e-02 2.371099999999999944e-02 5.924600000000000005e-02 5.791099999999999720e-02 4.295500000000000013e-02 1.368600000000000025e-02 7.281300000000000272e-02 -1.897499999999999881e-02 -1.210100000000000064e-02 6.363699999999999912e-02 -3.559000000000000098e-03 -8.571000000000000493e-03 3.689200000000000118e-02 -2.101000000000000003e-03 -3.436800000000000271e-02 8.296900000000000108e-02 1.498299999999999979e-02 -2.414499999999999980e-02 4.395799999999999708e-02 -4.381999999999999611e-03 2.560399999999999829e-02 8.342700000000000116e-02 1.770700000000000052e-02 1.114500000000000039e-02 6.392299999999999371e-02 1.206899999999999987e-02 2.058600000000000013e-02 -2.728799999999999976e-02 -3.017000000000000150e-03 1.576299999999999923e-02 -3.071000000000000119e-02 7.106999999999999602e-03 -1.162999999999999971e-02 -6.353000000000000140e-03 7.891000000000000444e-03 -6.637999999999999803e-03 -6.399000000000000174e-03 -2.763699999999999837e-02 6.499999999999999702e-03 -5.133800000000000169e-02 1.131700000000000067e-02 -2.560300000000000076e-02 -6.576899999999999413e-02 9.598999999999999894e-03 -1.294099999999999938e-02 -1.064709999999999962e-01 -4.784800000000000164e-02 -3.137800000000000311e-02 -1.048369999999999996e-01
-3.389999999999999784e-03 -3.825599999999999834e-02 -2.621700000000000072e-02 1.621999999999999961e-03 -2.397399999999999878e-02 -5.821899999999999992e-02 -1.854899999999999952e-02 3.080199999999999952e-02 -5.279400000000000065e-02 3.432600000000000234e-02 -3.468000000000000162e-03 -3.473500000000000199e-02 3.958999999999999846e-03 -3.151999999999999854e-03 3.996899999999999759e-02 -1.822700000000000015e-02 6.509999999999999945e-04 2.103700000000000014e-02 -2.390600000000000017e-02 1.246799999999999992e-02 2.912199999999999858e-02 1.270000000000000078e-03 -1.054300000000000029e-02 2.672700000000000076e-02 9.622000000000000344e-03 -9.150000000000000147e-04 8.759200000000000319e-02 4.977999999999999786e-03 -5.289000000000000298e-03 1.159540000000000015e-01 6.403999999999999970e-03 -6.347000000000000211e-03 7.023899999999999588e-02 -4.068000000000000088e-02 3.681500000000000050e-02 6.047899999999999804e-02 5.687000000000000215e-03 3.396000000000000147e-03 -5.995000000000000329e-03 5.303999999999999687e-03 -3.562000000000000062e-03 -9.296000000000000443e-03 4.089999999999999886e-03 3.106999999999999953e-03 -7.198999999999999670e-03 -2.801000000000000104e-03 1.348500000000000046e-02 -1.277400000000000063e-02 1.686199999999999852e-02 2.765999999999999796e-03 -5.672900000000000165e-02 -3.742000000000000100e-03 -1.879999999999999890e-04 -5.934400000000000092e-02 -4.230000000000000253e-03 8.092999999999999500e-03 -9.253500000000000614e-02 2.140200000000000088e-02 -1.588600000000000081e-02 -3.528099999999999986e-02
2.102499999999999855e-02 5.622000000000000261e-03 -3.716999999999999818e-03 4.894799999999999846e-02 5.234400000000000164e-02 -4.117000000000000000e-03 -2.262099999999999875e-02 -1.328999999999999973e-02 9.565999999999999850e-03 -3.097199999999999953e-02 2.278700000000000170e-02 8.238999999999999796e-03 4.071500000000000119e-02 -4.494200000000000278e-02 3.216700000000000115e-02 1.250000000000000026e-03 3.280399999999999983e-02 3.810100000000000292e-02 -1.956000000000000100e-02 -1.132599999999999926e-02 5.841899999999999871e-02 3.976400000000000073e-02 1.220899999999999937e-02 5.872999999999999748e-03 6.969000000000000368e-03 -2.757000000000000076e-02 4.036000000000000004e-02 -1.237000000000000035e-03 -3.831099999999999783e-02 1.479899999999999965e-02 -1.821400000000000102e-02 -2.231400000000000050e-02 9.107300000000000118e-02 -9.553000000000000727e-03 3.406999999999999872e-03 4.786100000000000076e-02 -1.266199999999999964e-02 1.242799999999999981e-02 -4.657999999999999814e-03 -6.166999999999999739e-03 7.948999999999999469e-03 4.560999999999999950e-03 8.416999999999999135e-03 2.809999999999999998e-03 -2.128899999999999890e-02 6.527999999999999949e-03 4.060000000000000024e-04 -5.008900000000000158e-02 -6.731000000000000004e-03 1.612999999999999851e-02 -4.359400000000000081e-02 1.291000000000000047e-03 -2.808000000000000079e-02 -6.525499999999999357e-02 -1.446599999999999969e-02 1.969999999999999876e-02 -1.145710000000000062e-01 -3.272200000000000109e-02 -2.763999999999999964e-03 -4.372999999999999804e-02
1.245590000000000031e-01 1.366989999999999872e-01 -3.572009999999999907e-01 1.192509999999999959e-01 -4.685830000000000273e-01 1.503349999999999964e-01 -1.280542999999999987e+00 2.194020000000000137e-01 5.963770000000000460e-01 -1.693919999999999870e-01 -1.355550000000000088e-01 -6.266939999999999733e-01 -2.717899999999999761e-01 -1.017061999999999911e+00 2.205360000000000098e-01 -7.955619999999999914e-01 -3.261709999999999887e-01 -4.013760000000000105e-01 -4.594799999999999995e-01 1.653930000000000122e-01 8.908599999999999852e-02 -2.167860000000000065e-01 -8.362600000000000589e-02 2.249299999999999911e-02 2.584560000000000191e-01 -6.002509999999999790e-01 -5.170899999999999802e-02 4.875600000000000073e-02 -5.331249999999999600e-01 -2.421020000000000116e-01 5.399549999999999628e-01 2.885499999999999732e-01 3.136809999999999876e-01 6.614000000000000087e-03 8.097459999999999658e-01 4.313710000000000044e-01 -6.317819999999999547e-01 1.772029999999999994e-01 6.345039999999999569e-01 -7.103399999999999992e-02 -7.880960000000000187e-01 2.995999999999999774e-01 3.784370000000000234e-01 8.893219999999999459e-01 8.223439999999999639e-01 1.341034000000000059e+00 1.047258999999999940e+00 3.263940000000000174e-01 8.778900000000000592e-02 -1.999390000000000056e-01 -9.979069999999999885e-01 4.812899999999999956e-01 -5.864960000000000173e-01 -8.314499999999999669e-02 7.289500000000000146e-02 8.301990000000000203e-01 -9.813549999999999773e-01 4.373319999999999985e-01 1.751290000000000069e-01 -1.652329999999999910e-01
2.180000000000000134e-04 -8.520000000000000013e-04 -2.059100000000000166e-02 2.469999999999999865e-04 -8.840000000000000201e-04 -2.060199999999999879e-02 2.190000000000000106e-04 -8.459999999999999638e-04 -2.058799999999999866e-02 2.590000000000000071e-04 -8.840000000000000201e-04 -2.060700000000000032e-02 2.130000000000000003e-04 -8.419999999999999750e-04 3.839599999999999957e-02 2.420000000000000005e-04 -8.739999999999999939e-04 3.840799999999999770e-02 2.120000000000000031e-04 -8.360000000000000460e-04 3.839499999999999857e-02 2.530000000000000239e-04 -8.750000000000000182e-04 3.841599999999999876e-02 3.350000000000000113e-04 -8.620000000000000275e-04 6.599700000000000011e-02 3.130000000000000187e-04 -8.329999999999999731e-04 6.601899999999999435e-02 3.280000000000000038e-04 -8.620000000000000275e-04 6.599800000000000111e-02 3.139999999999999888e-04 -8.390000000000000105e-04 6.601200000000000123e-02 -1.098000000000000018e-03 3.419000000000000164e-03 -1.514800000000000001e-02 -1.129000000000000012e-03 3.429000000000000190e-03 -1.514899999999999927e-02 -1.101999999999999898e-03 3.419999999999999863e-03 -1.514899999999999927e-02 -1.126999999999999964e-03 3.432999999999999854e-03 -1.514899999999999927e-02 3.379999999999999758e-04 -8.660000000000000163e-04 -6.865599999999999481e-02 3.159999999999999832e-04 -8.379999999999999862e-04 -6.867600000000000093e-02 3.310000000000000225e-04 -8.649999999999999920e-04 -6.865499999999999381e-02 3.179999999999999776e-04 -8.440000000000000236e-04 -6.866999999999999493e-02
7.739999999999999485e-04 -2.685900000000000093e-02 -5.394299999999999790e-02 3.320499999999999841e-02 -1.161300000000000006e-02 -3.613100000000000339e-02 8.918000000000000579e-03 -2.893300000000000038e-02 -4.670799999999999952e-02 -2.410899999999999849e-02 3.127499999999999725e-02 -3.083199999999999830e-02 -3.437400000000000178e-02 -2.804999999999999855e-02 2.887400000000000036e-02 -9.794999999999999887e-03 1.465600000000000062e-02 7.123500000000000665e-02 -4.688000000000000327e-03 1.202199999999999970e-02 5.122000000000000164e-02 7.974000000000000185e-03 -1.559999999999999972e-03 3.154900000000000065e-02 -1.636900000000000160e-02 -1.171699999999999998e-02 8.496700000000000086e-02 2.158999999999999895e-03 2.854999999999999899e-03 2.789900000000000019e-02 -2.489999999999999809e-04 2.904800000000000090e-02 1.292550000000000088e-01 -2.042100000000000165e-02 1.822999999999999968e-03 7.416399999999999382e-02 3.309000000000000136e-02 1.008299999999999995e-02 -1.098400000000000071e-02 -2.183000000000000045e-03 -1.953200000000000075e-02 -2.275000000000000112e-03 9.598999999999999894e-03 -3.658999999999999926e-03 -3.431000000000000022e-03 -1.802999999999999915e-03 3.044099999999999931e-02 4.772000000000000200e-03 -6.501999999999999967e-03 4.360000000000000160e-03 -8.967700000000000671e-02 2.289300000000000015e-02 1.808099999999999985e-02 -9.560799999999999854e-02 2.791000000000000078e-02 -3.950700000000000045e-02 -7.412000000000000532e-02 -2.603000000000000105e-02 1.678599999999999884e-02 -6.022600000000000176e-02
3.113850000000000229e-01 1.878208000000000100e+00 -1.739727000000000023e+00 2.723909999999999942e-01 1.013690000000000008e-01 3.543000000000000038e-01 -8.752600000000000657e-02 -9.069000000000000672e-02 4.550350000000000228e-01 -8.748899999999999455e-01 -6.413830000000000364e-01 5.041109999999999758e-01 1.072594000000000047e+00 -5.206220000000000292e-01 -6.428120000000000500e-01 -4.509029999999999982e-01 6.804000000000000326e-02 -4.762299999999999867e-02 -2.557559999999999834e-01 -3.338979999999999726e-01 -3.455639999999999823e-01 1.665280000000000094e-01 -1.944629999999999970e-01 9.600300000000000500e-02 2.000029999999999863e-01 9.078650000000000331e-01 1.717869999999999953e-01 4.723160000000000136e-01 -1.161906000000000105e+00 -2.386820000000000053e-01 -2.120519999999999905e-01 5.822540000000000493e-01 6.774059999999999526e-01 2.083260000000000112e-01 -2.074469999999999925e-01 -3.463220000000000187e-01 5.952920000000000433e-01 3.658429999999999738e-01 9.706380000000000008e-01 -3.878050000000000108e-01 -2.626089999999999813e-01 7.072559999999999958e-01 -8.441790000000000127e-01 -9.204949999999999521e-01 1.587715999999999905e+00 3.759509999999999796e-01 -5.802530000000000188e-01 -1.565158000000000049e+00 -6.247059999999999835e-01 -3.301810000000000023e-01 -3.302959999999999785e-01 -1.664740000000000109e-01 7.542799999999999505e-01 -3.289199999999999902e-01 -4.592459999999999876e-01 3.231459999999999888e-01 1.129040000000000044e-01 6.887510000000000021e-01 2.629429999999999823e-01 -5.205100000000000005e-02
4.800999999999999712e-03 4.329999999999999648e-03 -1.215600000000000014e-02 6.426999999999999380e-02 1.382199999999999922e-02 -1.265999999999999981e-03 -1.017400000000000075e-02 -1.133900000000000012e-02 -8.023000000000000617e-03 -2.245000000000000034e-03 2.268000000000000051e-03 -2.888500000000000095e-02 -5.310000000000000050e-04 9.051000000000000018e-03 1.756800000000000028e-02 -1.951699999999999963e-02 -5.126999999999999613e-03 3.955499999999999988e-02 -3.312999999999999973e-02 -1.337700000000000000e-02 4.499999999999999660e-03 -3.266999999999999939e-03 -4.815900000000000042e-02 2.582999999999999793e-03 -7.401999999999999726e-03 -7.267000000000000022e-03 4.537200000000000261e-02 -6.359399999999999775e-02 -1.482299999999999937e-02 4.391300000000000064e-02 2.829999999999999942e-04 -1.063700000000000062e-02 5.562600000000000183e-02 -4.734000000000000360e-03 2.202899999999999997e-02 7.113500000000000378e-02 1.320900000000000026e-02 -1.783500000000000016e-02 -3.801000000000000125e-03 2.470999999999999933e-02 9.499999999999999764e-03 -3.439999999999999915e-03 1.660100000000000117e-02 1.893200000000000091e-02 -2.116099999999999925e-02 4.091000000000000018e-03 -6.200000000000000270e-05 -1.168800000000000047e-02 7.680000000000000195e-03 4.462599999999999900e-02 -1.763199999999999837e-02 1.400599999999999935e-02 2.712399999999999881e-02 -2.779999999999999832e-02 4.595000000000000126e-03 -2.734100000000000072e-02 -6.561400000000000565e-02 -9.653000000000000122e-03 4.284999999999999747e-03 -7.878699999999999593e-02