8.386060556000000332e+00 0.000000000000000000e+00 0.000000000000000000e+00 -4.256236140000000390e+00 7.372017764999999834e+00 0.000000000000000000e+00 0.000000000000000000e+00 0.000000000000000000e+00 2.000000000000000000e+01
8.160654137999999946e+00 0.000000000000000000e+00 0.000000000000000000e+00 -4.324819966999999821e+00 7.490808445999999954e+00 0.000000000000000000e+00 0.000000000000000000e+00 0.000000000000000000e+00 2.000000000000000000e+01
8.291047519999999338e+00 0.000000000000000000e+00 0.000000000000000000e+00 -4.195605887000000145e+00 7.267003078000000116e+00 0.000000000000000000e+00 0.000000000000000000e+00 0.000000000000000000e+00 2.000000000000000000e+01
8.202212729999999397e+00 0.000000000000000000e+00 0.000000000000000000e+00 -4.323117948000000155e+00 7.487860462999999633e+00 0.000000000000000000e+00 0.000000000000000000e+00 0.000000000000000000e+00 2.000000000000000000e+01
8.494848412999999709e+00 0.000000000000000000e+00 0.000000000000000000e+00 -4.421580280999999779e+00 7.658402238999999945e+00 0.000000000000000000e+00 0.000000000000000000e+00 0.000000000000000000e+00 2.000000000000000000e+01
8.800580930000000635e+00 0.000000000000000000e+00 0.000000000000000000e+00 -4.551072826999999599e+00 7.882689921999999960e+00 0.000000000000000000e+00 0.000000000000000000e+00 0.000000000000000000e+00 2.000000000000000000e+01
8.241576799000000619e+00 0.000000000000000000e+00 0.000000000000000000e+00 -4.198723747999999922e+00 7.272403372000000310e+00 0.000000000000000000e+00 0.000000000000000000e+00 0.000000000000000000e+00 2.000000000000000000e+01
8.400763212999999396e+00 0.000000000000000000e+00 0.000000000000000000e+00 -4.140372185999999566e+00 7.171335496000000198e+00 0.000000000000000000e+00 0.000000000000000000e+00 0.000000000000000000e+00 2.000000000000000000e+01
8.483635669999999962e+00 0.000000000000000000e+00 0.000000000000000000e+00 -4.016097407000000175e+00 6.956085249000000026e+00 0.000000000000000000e+00 0.000000000000000000e+00 0.000000000000000000e+00 2.000000000000000000e+01
8.224438290000000151e+00 0.000000000000000000e+00 0.000000000000000000e+00 -4.187516235000000364e+00 7.252991390000000038e+00 0.000000000000000000e+00 0.000000000000000000e+00 0.000000000000000000e+00 2.000000000000000000e+01
8.621038130000000521e+00 0.000000000000000000e+00 0.000000000000000000e+00 -4.303303009999999595e+00 7.453539980000000398e+00 0.000000000000000000e+00 0.000000000000000000e+00 0.000000000000000000e+00 2.000000000000000000e+01
8.579043428000000304e+00 0.000000000000000000e+00 0.000000000000000000e+00 -4.256617443999999750e+00 7.372678203000000430e+00 0.000000000000000000e+00 0.000000000000000000e+00 0.000000000000000000e+00 2.000000000000000000e+01
8.340160993999999661e+00 0.000000000000000000e+00 0.000000000000000000e+00 -4.192967365000000335e+00 7.262433023999999904e+00 0.000000000000000000e+00 0.000000000000000000e+00 0.000000000000000000e+00 2.000000000000000000e+01
8.430269793000000789e+00 0.000000000000000000e+00 0.000000000000000000e+00 -4.073211824000000369e+00 7.055010326999999748e+00 0.000000000000000000e+00 0.000000000000000000e+00 0.000000000000000000e+00 2.000000000000000000e+01
8.856462226999999743e+00 0.000000000000000000e+00 0.000000000000000000e+00 -4.375357156999999830e+00 7.578341433000000293e+00 0.000000000000000000e+00 0.000000000000000000e+00 0.000000000000000000e+00 2.000000000000000000e+01
8.204029651000000811e+00 0.000000000000000000e+00 0.000000000000000000e+00 -4.202590327000000237e+00 7.279100484999999843e+00 0.000000000000000000e+00 0.000000000000000000e+00 0.000000000000000000e+00 2.000000000000000000e+01
8.333755541000000377e+00 0.000000000000000000e+00 0.000000000000000000e+00 -4.305215737000000154e+00 7.456852922000000383e+00 0.000000000000000000e+00 0.000000000000000000e+00 0.000000000000000000e+00 2.000000000000000000e+01
8.259664965000000691e+00 0.000000000000000000e+00 0.000000000000000000e+00 -4.296056252999999714e+00 7.440988229000000231e+00 0.000000000000000000e+00 0.000000000000000000e+00 0.000000000000000000e+00 2.000000000000000000e+01
8.873221347999999509e+00 0.000000000000000000e+00 0.000000000000000000e+00 -4.387011694999999989e+00 7.598527684999999643e+00 0.000000000000000000e+00 0.000000000000000000e+00 0.000000000000000000e+00 2.000000000000000000e+01
8.456833603999999838e+00 0.000000000000000000e+00 0.000000000000000000e+00 -4.286828813999999710e+00 7.425005834000000249e+00 0.000000000000000000e+00 0.000000000000000000e+00 0.000000000000000000e+00 2.000000000000000000e+01
8.916708957999999186e+00 0.000000000000000000e+00 0.000000000000000000e+00 -4.598143123999999915e+00 7.964218073999999703e+00 0.000000000000000000e+00 0.000000000000000000e+00 0.000000000000000000e+00 2.000000000000000000e+01
8.381016030999999700e+00 0.000000000000000000e+00 0.000000000000000000e+00 -4.457448699000000403e+00 7.720528165000000165e+00 0.000000000000000000e+00 0.000000000000000000e+00 0.000000000000000000e+00 2.000000000000000000e+01
8.204025658999999138e+00 0.000000000000000000e+00 0.000000000000000000e+00 -4.068583642000000111e+00 7.046994081000000243e+00 0.000000000000000000e+00 0.000000000000000000e+00 0.000000000000000000e+00 2.000000000000000000e+01
8.495400260000000259e+00 0.000000000000000000e+00 0.000000000000000000e+00 -4.139167271999999898e+00 7.169248523000000262e+00 0.000000000000000000e+00 0.000000000000000000e+00 0.000000000000000000e+00 2.000000000000000000e+01
8.568352424000000411e+00 0.000000000000000000e+00 0.000000000000000000e+00 -4.219866527999999839e+00 7.309023744000000100e+00 0.000000000000000000e+00 0.000000000000000000e+00 0.000000000000000000e+00 2.000000000000000000e+01
8.324078268999999253e+00 0.000000000000000000e+00 0.000000000000000000e+00 -4.047078783999999985e+00 7.009746572000000064e+00 0.000000000000000000e+00 0.000000000000000000e+00 0.000000000000000000e+00 2.000000000000000000e+01
8.578131410999999318e+00 0.000000000000000000e+00 0.000000000000000000e+00 -4.330473036999999970e+00 7.500599851999999679e+00 0.000000000000000000e+00 0.000000000000000000e+00 0.000000000000000000e+00 2.000000000000000000e+01
8.562518769000000418e+00 0.000000000000000000e+00 0.000000000000000000e+00 -4.121702452000000072e+00 7.138998564999999630e+00 0.000000000000000000e+00 0.000000000000000000e+00 0.000000000000000000e+00 2.000000000000000000e+01
9.009106662000000654e+00 0.000000000000000000e+00 0.000000000000000000e+00 -4.388989040000000230e+00 7.601952547999999865e+00 0.000000000000000000e+00 0.000000000000000000e+00 0.000000000000000000e+00 2.000000000000000000e+01
8.736314053999999274e+00 0.000000000000000000e+00 0.000000000000000000e+00 -4.351000248000000070e+00 7.536154027000000255e+00 0.000000000000000000e+00 0.000000000000000000e+00 0.000000000000000000e+00 2.000000000000000000e+01
8.786584464000000594e+00 0.000000000000000000e+00 0.000000000000000000e+00 -4.645790778000000287e+00 8.046746237000000690e+00 0.000000000000000000e+00 0.000000000000000000e+00 0.000000000000000000e+00 2.000000000000000000e+01
8.443470160000000391e+00 0.000000000000000000e+00 0.000000000000000000e+00 -4.353548151000000033e+00 7.540567123999999843e+00 0.000000000000000000e+00 0.000000000000000000e+00 0.000000000000000000e+00 2.000000000000000000e+01
8.731304724999999323e+00 0.000000000000000000e+00 0.000000000000000000e+00 -4.370527264999999772e+00 7.569975814000000192e+00 0.000000000000000000e+00 0.000000000000000000e+00 0.000000000000000000e+00 2.000000000000000000e+01
8.276775981000000115e+00 0.000000000000000000e+00 0.000000000000000000e+00 -4.214909246999999581e+00 7.300437480000000257e+00 0.000000000000000000e+00 0.000000000000000000e+00 0.000000000000000000e+00 2.000000000000000000e+01
8.377277318000000861e+00 0.000000000000000000e+00 0.000000000000000000e+00 -4.315314190999999688e+00 7.474343957000000316e+00 0.000000000000000000e+00 0.000000000000000000e+00 0.000000000000000000e+00 2.000000000000000000e+01
8.413009014000000008e+00 0.000000000000000000e+00 0.000000000000000000e+00 -4.261637513000000155e+00 7.381373219000000319e+00 0.000000000000000000e+00 0.000000000000000000e+00 0.000000000000000000e+00 2.000000000000000000e+01
8.132427180000000533e+00 0.000000000000000000e+00 0.000000000000000000e+00 -4.218882221000000321e+00 7.307318873999999909e+00 0.000000000000000000e+00 0.000000000000000000e+00 0.000000000000000000e+00 2.000000000000000000e+01
8.424526705999999976e+00 0.000000000000000000e+00 0.000000000000000000e+00 -4.347238177000000370e+00 7.529637927999999647e+00 0.000000000000000000e+00 0.000000000000000000e+00 0.000000000000000000e+00 2.000000000000000000e+01
8.991138482000000209e+00 0.000000000000000000e+00 0.000000000000000000e+00 -4.429269074999999667e+00 7.671719621000000267e+00 0.000000000000000000e+00 0.000000000000000000e+00 0.000000000000000000e+00 2.000000000000000000e+01
8.497215409000000719e+00 0.000000000000000000e+00 0.000000000000000000e+00 -4.221433667000000334e+00 7.311738109000000208e+00 0.000000000000000000e+00 0.000000000000000000e+00 0.000000000000000000e+00 2.000000000000000000e+01
8.387311397999999585e+00 0.000000000000000000e+00 0.000000000000000000e+00 -4.277784368999999920e+00 7.409340395000000079e+00 0.000000000000000000e+00 0.000000000000000000e+00 0.000000000000000000e+00 2.000000000000000000e+01
9.095241157000000243e+00 0.000000000000000000e+00 0.000000000000000000e+00 -4.494528360000000333e+00 7.784752026999999686e+00 0.000000000000000000e+00 0.000000000000000000e+00 0.000000000000000000e+00 2.000000000000000000e+01
8.718245818999999841e+00 0.000000000000000000e+00 0.000000000000000000e+00 -4.200939457999999682e+00 7.276241095999999686e+00 0.000000000000000000e+00 0.000000000000000000e+00 0.000000000000000000e+00 2.000000000000000000e+01
8.643006800000000212e+00 0.000000000000000000e+00 0.000000000000000000e+00 -4.210299517000000158e+00 7.292453194000000138e+00 0.000000000000000000e+00 0.000000000000000000e+00 0.000000000000000000e+00 2.000000000000000000e+01
8.386970976000000633e+00 0.000000000000000000e+00 0.000000000000000000e+00 -4.312646079000000299e+00 7.469722651999999741e+00 0.000000000000000000e+00 0.000000000000000000e+00 0.000000000000000000e+00 2.000000000000000000e+01
8.567222187000000488e+00 0.000000000000000000e+00 0.000000000000000000e+00 -4.275516116999999561e+00 7.405411666000000004e+00 0.000000000000000000e+00 0.000000000000000000e+00 0.000000000000000000e+00 2.000000000000000000e+01
8.224627582000000103e+00 0.000000000000000000e+00 0.000000000000000000e+00 -4.359546499000000352e+00 7.550956568000000146e+00 0.000000000000000000e+00 0.000000000000000000e+00 0.000000000000000000e+00 2.000000000000000000e+01
7.971115487999999694e+00 0.000000000000000000e+00 0.000000000000000000e+00 -4.209265637999999754e+00 7.290662463000000315e+00 0.000000000000000000e+00 0.000000000000000000e+00 0.000000000000000000e+00 2.000000000000000000e+01
8.323784691000000180e+00 0.000000000000000000e+00 0.000000000000000000e+00 -4.247473805000000269e+00 7.356840953999999932e+00 0.000000000000000000e+00 0.000000000000000000e+00 0.000000000000000000e+00 2.000000000000000000e+01
8.429025126000000867e+00 0.000000000000000000e+00 0.000000000000000000e+00 -4.082864645999999986e+00 7.071729506999999693e+00 0.000000000000000000e+00 0.000000000000000000e+00 0.000000000000000000e+00 2.000000000000000000e+01
8.695685682000000583e+00 0.000000000000000000e+00 0.000000000000000000e+00 -4.286265895999999742e+00 7.424030830999999608e+00 0.000000000000000000e+00 0.000000000000000000e+00 0.000000000000000000e+00 2.000000000000000000e+01
8.802760763000000210e+00 0.000000000000000000e+00 0.000000000000000000e+00 -4.039685697000000353e+00 6.996941367999999883e+00 0.000000000000000000e+00 0.000000000000000000e+00 0.000000000000000000e+00 2.000000000000000000e+01
9.012386431999999559e+00 0.000000000000000000e+00 0.000000000000000000e+00 -4.381307441999999774e+00 7.588647628999999561e+00 0.000000000000000000e+00 0.000000000000000000e+00 0.000000000000000000e+00 2.000000000000000000e+01
8.781622630999999402e+00 0.000000000000000000e+00 0.000000000000000000e+00 -4.397628354000000073e+00 7.616916279999999873e+00 0.000000000000000000e+00 0.000000000000000000e+00 0.000000000000000000e+00 2.000000000000000000e+01
8.552115077999999926e+00 0.000000000000000000e+00 0.000000000000000000e+00 -4.179814042000000285e+00 7.239650798000000442e+00 0.000000000000000000e+00 0.000000000000000000e+00 0.000000000000000000e+00 2.000000000000000000e+01
8.056979695000000774e+00 0.000000000000000000e+00 0.000000000000000000e+00 -4.083576951999999594e+00 7.072963257999999698e+00 0.000000000000000000e+00 0.000000000000000000e+00 0.000000000000000000e+00 2.000000000000000000e+01
8.787211708999999260e+00 0.000000000000000000e+00 0.000000000000000000e+00 -4.370834430000000381e+00 7.570507839000000239e+00 0.000000000000000000e+00 0.000000000000000000e+00 0.000000000000000000e+00 2.000000000000000000e+01
