-6.805445355000000518e+01
-6.783993207000000325e+01
-6.921860691999999915e+01
-6.869334684999999752e+01
-6.764201921999999456e+01
-6.719528133000000025e+01
-6.981731096000000036e+01
-7.049129360000000588e+01
-6.806663451999999381e+01
-6.848972308999999825e+01
-6.827126757999999995e+01
-6.823243017999999438e+01
-6.799615317999999320e+01
-7.011120123000000603e+01
-6.832772233000000028e+01
-6.886564730999999995e+01
-6.852603790999999944e+01
-6.871184907999999325e+01
-6.718136884999999836e+01
-6.861601498999999649e+01
-6.617018828999999869e+01
-6.846568591000000481e+01
-6.996569329999999809e+01
-6.754119842999999435e+01
-6.676426820000000362e+01
-6.894152458000000649e+01
-6.638754570999999771e+01
-6.889160187999999607e+01
-6.736956652000000645e+01
-6.797931712999999831e+01
-6.751956314999999620e+01
-6.928656250000000227e+01
-6.736850370999999882e+01
-6.801595851000000437e+01
-6.783665265999999860e+01
-6.964230648999999573e+01
-6.996487055000000055e+01
-6.544097037000000228e+01
-6.713091248000000633e+01
-6.978273597000000450e+01
-6.884336236000000042e+01
-6.641005638999999405e+01
-6.873030133999999691e+01
-6.859879254000000515e+01
-6.910228125999999804e+01
-6.899839747999999418e+01
-6.869175635999999940e+01
-6.913796471000000565e+01
-6.861818100000000697e+01
-6.942303585999999882e+01
-6.893729175999999370e+01
-6.910428201000000570e+01
-6.735970862000000636e+01
-6.628415717000000029e+01
-6.882505360000000394e+01
-7.048431462000000636e+01
-6.800178587000000618e+01
