2.378850000000000131e-01 6.238489999999999869e-01 2.930980000000000252e-01 5.763669999999999627e-01 4.156380000000000075e-01 4.809479999999999866e-01 4.602599999999999747e-02 1.879079999999999917e-01 -1.218699999999999992e-02 1.693840000000000068e-01 1.657639999999999947e-01 2.359110000000000096e-01 -6.157589999999999453e-01 -3.720149999999999846e-01 -1.194159999999999944e-01 2.241999999999999896e-02 -1.588200000000000028e-02 1.282570000000000099e-01 3.752240000000000020e-01 1.983560000000000045e-01 5.546910000000000451e-01 4.312019999999999742e-01 6.677779999999999827e-01 -5.896499999999999658e-02 -4.227790000000000159e-01 -4.555359999999999965e-01 -8.383599999999999386e-02 -3.446500000000000119e-01 -3.786340000000000261e-01 -2.466000000000000136e-01 1.432100000000000040e-02 -6.144939999999999847e-01 -3.573199999999999987e-02 -2.343949999999999922e-01 -2.320979999999999988e-01 -6.328499999999999404e-02 -3.133509999999999907e-01 4.790559999999999818e-01 -6.118029999999999857e-01 -2.869419999999999749e-01 2.284990000000000077e-01 6.823799999999999311e-02 1.122859999999999969e-01 -6.755999999999999506e-02 2.747129999999999850e-01 4.682700000000000057e-02 -1.800370000000000026e-01 3.577520000000000144e-01 5.984960000000000280e-01 -5.290620000000000323e-01 5.264579999999999815e-01 -6.701470000000000482e-01 2.920030000000000125e-01 -6.298650000000000082e-01 4.068200000000000288e-02 -1.547429999999999917e-01 -8.326789999999999470e-01 2.169030000000000125e-01 -2.587920000000000220e-01 -2.256990000000000107e-01
1.205640000000000045e-01 1.981219999999999926e-01 9.367630000000000123e-01 -3.331709999999999949e-01 -5.802580000000000515e-01 7.029539999999999678e-01 3.974460000000000215e-01 -8.308109999999999662e-01 1.030402999999999958e+00 -2.514089999999999936e-01 -6.242440000000000211e-01 -1.682536000000000032e+00 -1.214380000000000043e-01 1.375790000000000068e-01 2.670200000000000004e-02 -1.196957999999999966e+00 -8.230239999999999778e-01 -1.020329999999999987e-01 -3.618699999999999695e-02 1.118627000000000038e+00 5.711009999999999698e-01 -2.033369999999999900e-01 -4.102890000000000148e-01 -7.546920000000000295e-01 1.389630000000000032e-01 4.742330000000000156e-01 -3.709259999999999780e-01 1.007580000000000003e-01 3.466400000000000037e-01 -3.949699999999999878e-01 -6.377159999999999496e-01 6.967670000000000252e-01 4.959299999999999820e-02 5.166359999999999841e-01 2.338699999999999946e-01 -1.639269999999999894e-01 6.824799999999999756e-01 -8.097940000000000138e-01 -1.700129999999999975e-01 7.022969999999999491e-01 -1.814599999999999894e-02 -8.926060000000000105e-01 -4.260939999999999728e-01 1.276819999999999899e-01 -9.217090000000000005e-01 -4.488829999999999765e-01 2.209369999999999945e-01 1.057279000000000080e+00 -6.480099999999999749e-02 -1.154420000000000029e-01 7.666410000000000169e-01 7.475389999999999535e-01 -2.545700000000000185e-01 9.355329999999999480e-01 1.301360000000000017e-01 6.185199999999999587e-01 -9.943260000000000431e-01 1.831720000000000015e-01 2.936000000000000276e-01 3.707690000000000152e-01
6.423130000000000228e-01 -3.585280000000000133e-01 1.872159999999999935e-01 -3.660340000000000260e-01 -9.176800000000000235e-02 3.397009999999999752e-01 -4.516809999999999992e-01 -1.625790000000000013e-01 -1.082100000000000076e-02 -3.740780000000000216e-01 -1.317369999999999930e-01 5.249150000000000205e-01 3.718339999999999979e-01 7.180729999999999613e-01 -1.363270000000000037e-01 -1.457710000000000117e-01 -2.681660000000000155e-01 3.551599999999999896e-02 -4.164280000000000204e-01 -1.069149999999999961e-01 4.146839999999999971e-01 -2.477260000000000018e-01 -1.124560000000000004e-01 6.213099999999999873e-02 -1.468900000000000067e-02 -1.473800000000000110e-01 -1.587419999999999942e-01 4.663070000000000270e-01 7.185099999999999820e-02 -1.005830000000000057e-01 -1.795489999999999864e-01 5.853140000000000009e-01 -1.752300000000000038e-02 2.256460000000000132e-01 4.706029999999999935e-01 2.605319999999999858e-01 3.025550000000000184e-01 -6.786379999999999635e-01 -1.813700000000000034e-01 4.466189999999999882e-01 3.849099999999999744e-02 -3.639060000000000072e-01 -4.471430000000000127e-01 1.072909999999999975e-01 -3.215599999999999709e-02 -2.180690000000000128e-01 -1.091180000000000067e-01 6.201600000000000168e-02 4.749900000000000233e-01 1.940719999999999945e-01 -3.547800000000000259e-02 -7.901000000000000037e-03 -1.892850000000000088e-01 8.961900000000000421e-02 3.130839999999999734e-01 4.581350000000000144e-01 -4.127730000000000010e-01 -3.742770000000000263e-01 -2.872589999999999866e-01 -5.266509999999999803e-01
-1.005999999999999950e-03 1.188079999999999969e-01 1.666130000000000111e-01 -6.411879999999999802e-01 2.391159999999999952e-01 6.465999999999999526e-02 -3.905219999999999803e-01 1.993000000000000049e-01 5.955089999999999550e-01 6.774219999999999686e-01 9.694930000000000492e-01 2.663690000000000224e-01 -6.691500000000000226e-01 3.209779999999999855e-01 1.557759999999999978e-01 -4.445339999999999847e-01 4.504900000000000015e-01 1.998939999999999884e-01 7.405890000000000528e-01 5.299509999999999499e-01 1.917210000000000025e-01 3.659560000000000035e-01 4.825309999999999877e-01 2.257760000000000045e-01 3.972189999999999888e-01 -2.988950000000000218e-01 2.267210000000000059e-01 6.569400000000000239e-02 2.363799999999999929e-02 -1.931799999999999906e-01 4.621000000000000107e-03 2.240400000000000030e-02 4.353300000000000225e-02 -1.671580000000000010e-01 -1.180139999999999967e+00 -9.330899999999999750e-01 1.583170000000000133e-01 -6.305490000000000261e-01 -6.612320000000000420e-01 -5.190600000000000075e-02 5.143210000000000282e-01 6.428519999999999790e-01 -5.301700000000000162e-02 -5.220390000000000308e-01 -3.551309999999999745e-01 3.814910000000000245e-01 -3.023790000000000089e-01 6.274100000000000232e-01 1.399620000000000031e-01 -1.894010000000000138e-01 -1.263549999999999951e-01 -3.003419999999999979e-01 3.326830000000000065e-01 -8.799059999999999659e-01 -7.550179999999999669e-01 -3.233429999999999915e-01 -3.944779999999999953e-01 5.425680000000000502e-01 -7.569669999999999455e-01 1.365379999999999927e-01
-3.246330000000000049e-01 6.464320000000000066e-01 5.586440000000000294e-01 -1.309700000000000031e-01 -5.211850000000000094e-01 -1.065882999999999914e+00 1.116090999999999944e+00 8.546249999999999680e-01 -4.793390000000000151e-01 2.515160000000000173e-01 -1.391959999999999864e-01 -4.949799999999999756e-01 -3.588359999999999883e-01 -4.364520000000000066e-01 3.746450000000000058e-01 -9.523299999999999821e-02 -3.639859999999999762e-01 1.653509999999999980e-01 1.317629999999999912e-01 5.666899999999999715e-02 2.585009999999999808e-01 -2.424419999999999908e-01 -1.040308999999999928e+00 -3.863289999999999780e-01 -1.018680000000000002e-01 -9.013500000000000678e-02 2.846000000000000005e-03 1.323870000000000047e-01 -4.786000000000000323e-03 2.462930000000000119e-01 -8.954149999999999610e-01 -6.019299999999999651e-01 -2.228219999999999923e-01 -7.696699999999999375e-02 1.467500000000000054e-02 2.954330000000000012e-01 7.085129999999999484e-01 7.827900000000000136e-02 -1.253528999999999893e+00 -4.334290000000000087e-01 1.362460000000000060e-01 3.213059999999999805e-01 -1.055070000000000036e-01 3.848409999999999886e-01 9.327560000000000295e-01 7.438970000000000304e-01 -9.501300000000000023e-02 -3.050570000000000226e-01 4.066480000000000095e-01 2.704710000000000170e-01 2.381139999999999923e-01 -3.909210000000000185e-01 3.055760000000000143e-01 -4.791449999999999876e-01 -6.315700000000000480e-02 6.861599999999999644e-02 2.294380000000000031e-01 -2.714360000000000106e-01 4.765630000000000144e-01 1.063757000000000064e+00
-1.167620000000000047e-01 5.446999999999999585e-03 -2.693050000000000166e-01 -1.845130000000000103e-01 -6.800969999999999516e-01 1.224549999999999944e-01 -3.968800000000000106e-02 -3.851129999999999831e-01 3.001159999999999939e-01 -5.109000000000000347e-02 -6.559390000000000498e-01 5.966730000000000089e-01 -2.186899999999999955e-01 -2.451899999999999913e-02 -1.509179999999999966e-01 1.325399999999999912e-01 -7.485400000000000387e-02 -6.224210000000000020e-01 1.912850000000000106e-01 2.524950000000000250e-01 1.324160000000000059e-01 7.825999999999999623e-02 1.260479999999999934e-01 -7.297000000000000153e-01 1.604679999999999995e-01 5.534850000000000048e-01 -2.351209999999999967e-01 3.928299999999999847e-02 6.026749999999999607e-01 -3.228179999999999938e-01 -4.875100000000000267e-02 3.583399999999999919e-01 -3.290799999999999975e-02 -4.140599999999999836e-02 1.118480000000000030e-01 -6.499999999999999702e-04 -8.802699999999999414e-02 -2.720569999999999933e-01 5.447670000000000012e-01 1.746129999999999904e-01 -1.158929999999999960e-01 -3.682499999999999662e-02 -1.300099999999999867e-01 2.292309999999999903e-01 3.464860000000000162e-01 2.846670000000000034e-01 6.521299999999999319e-02 3.187899999999999762e-02 6.633580000000000032e-01 -1.258519999999999917e-01 7.240800000000000014e-02 -2.592189999999999772e-01 2.639460000000000139e-01 -1.936799999999999980e-02 -5.534419999999999895e-01 6.261370000000000546e-01 -2.449209999999999998e-01 7.124000000000000124e-03 -8.605410000000000004e-01 5.177570000000000228e-01
1.026450000000000001e-01 -3.009029999999999760e-01 4.146119999999999806e-01 -1.971249999999999947e-01 4.064159999999999995e-01 2.368409999999999960e-01 4.815519999999999801e-01 5.074689999999999479e-01 6.325880000000000392e-01 -7.319799999999999918e-02 -2.674349999999999783e-01 3.285939999999999972e-01 -9.152999999999999678e-03 -7.181819999999999871e-01 -2.228899999999999978e-02 4.881599999999999828e-01 9.532300000000000495e-02 1.743339999999999890e-01 2.022829999999999906e-01 1.678939999999999877e-01 5.912129999999999885e-01 -1.964079999999999993e-01 -1.168710000000000027e-01 -2.363799999999999929e-02 9.380399999999999849e-02 1.267840000000000078e-01 -1.771629999999999872e-01 -1.427460000000000118e-01 -1.458840000000000137e-01 -1.254349999999999909e-01 -5.731110000000000371e-01 -7.262709999999999999e-01 -2.018729999999999969e-01 -1.842729999999999924e-01 1.108139999999999958e-01 -4.010489999999999888e-01 -2.855469999999999953e-01 -1.389350000000000029e-01 2.884000000000000105e-02 -1.634049999999999947e-01 -5.414999999999999675e-03 -1.563219999999999887e-01 2.059300000000000019e-01 -4.443670000000000120e-01 -1.535910000000000053e-01 1.752039999999999986e-01 4.539850000000000274e-01 -5.096190000000000442e-01 -6.110529999999999573e-01 -2.523699999999999902e-02 -7.844719999999999471e-01 -4.817500000000000254e-02 -2.380359999999999976e-01 2.003080000000000138e-01 4.416220000000000145e-01 5.282149999999999901e-01 -5.465440000000000298e-01 2.929950000000000054e-01 7.306369999999999809e-01 4.946650000000000214e-01
1.519862999999999964e+00 5.668950000000000378e-01 7.178860000000000241e-01 -7.537209999999999743e-01 3.401989999999999736e-01 -2.190400000000000125e-01 2.230409999999999893e-01 1.027210000000000067e-01 -2.562090000000000201e-01 6.238399999999999501e-01 1.429860000000000020e-01 -1.521400000000000009e-02 -1.273954000000000031e+00 7.218050000000000299e-01 -1.642969999999999986e-01 9.251150000000000206e-01 -6.468110000000000248e-01 -6.449100000000000665e-02 9.328060000000000240e-01 -6.861890000000000489e-01 2.909740000000000104e-01 1.763029999999999875e-01 1.035023999999999944e+00 -6.218690000000000051e-01 -6.842819999999999458e-01 -1.007886000000000060e+00 1.109910000000000063e-01 -6.268259999999999943e-01 5.098639999999999839e-01 -2.728869999999999907e-01 -3.848170000000000202e-01 -2.835559999999999747e-01 -1.981279999999999986e-01 8.675499999999999878e-02 -1.529870000000000119e-01 5.930900000000000061e-02 -3.479869999999999908e-01 -2.330639999999999934e-01 9.104970000000000008e-01 2.056540000000000035e-01 5.376990000000000380e-01 -3.110299999999999870e-02 -1.986809999999999965e-01 -3.361279999999999824e-01 -7.038830000000000364e-01 5.798010000000000108e-01 -4.141770000000000174e-01 -5.022109999999999630e-01 -9.057979999999999920e-01 -7.547530000000000072e-01 2.725879999999999970e-01 2.190880000000000050e-01 1.744169999999999887e-01 5.306299999999999906e-02 3.248899999999999705e-02 4.025369999999999782e-01 -2.581919999999999771e-01 -3.486909999999999732e-01 -1.859699999999999895e-02 8.922170000000000378e-01
-3.227399999999999713e-02 -1.542840000000000045e-01 2.944910000000000028e-01 2.389680000000000137e-01 -1.394420000000000104e-01 7.303600000000000370e-02 5.245959999999999512e-01 3.654609999999999803e-01 3.239190000000000125e-01 6.040750000000000286e-01 -1.214459999999999984e-01 -9.036340000000000483e-01 -7.932300000000000462e-02 -7.473490000000000411e-01 1.917580000000000118e-01 -7.885280000000000067e-01 2.387009999999999965e-01 -7.365180000000000060e-01 -2.811560000000000170e-01 3.489849999999999897e-01 5.498480000000000034e-01 -4.013639999999999985e-01 -4.543650000000000189e-01 -6.678349999999999564e-01 -2.222109999999999919e-01 2.380420000000000036e-01 1.232950000000000018e-01 -3.121889999999999943e-01 5.174200000000000327e-02 6.608380000000000365e-01 -4.014289999999999803e-01 1.884780000000000066e-01 1.330600000000000116e-01 -5.896869999999999612e-01 -2.286809999999999954e-01 5.329249999999999821e-01 1.341604999999999936e+00 -2.265210000000000001e-01 -5.650749999999999940e-01 -2.358820000000000083e-01 -8.725730000000000430e-01 -2.476899999999999935e-01 -4.529250000000000220e-01 1.906349999999999989e-01 3.180999999999999800e-02 2.898200000000000082e-02 -1.122770000000000018e-01 1.244791999999999899e+00 5.383710000000000440e-01 5.509560000000000013e-01 -1.284399999999999986e-01 4.493980000000000197e-01 2.461899999999999922e-01 1.239220000000000044e-01 -3.754600000000000298e-02 -9.908000000000000140e-03 -9.143569999999999753e-01 1.085200000000000053e-01 6.476570000000000382e-01 -1.201460000000000028e-01
3.934909999999999797e-01 -4.426089999999999747e-01 -6.222710000000000186e-01 3.943000000000000324e-03 -2.267679999999999974e-01 3.439000000000000216e-03 -6.194169999999999954e-01 -2.093369999999999953e-01 -3.624370000000000092e-01 -1.188279000000000085e+00 -1.869969999999999966e-01 9.127990000000000270e-01 8.345930000000000293e-01 1.368405000000000094e+00 -6.746459999999999679e-01 -1.003649999999999959e-01 -8.807999999999999857e-03 -3.529660000000000020e-01 1.692809999999999870e-01 1.156589999999999979e-01 -7.316169999999999618e-01 -1.145612000000000075e+00 5.801990000000000203e-01 -6.372240000000000126e-01 -1.829820000000000058e-01 -3.981099999999999917e-02 -5.238829999999999876e-01 9.835390000000000521e-01 -1.652199999999999849e-02 -6.415300000000000169e-02 1.938539999999999985e-01 3.625280000000000169e-01 3.376029999999999864e-01 1.629440000000000055e-01 8.207729999999999748e-01 -4.201980000000000159e-01 1.827070000000000083e-01 3.932999999999999691e-02 1.215956999999999955e+00 -2.678360000000000185e-01 -1.357210000000000083e-01 -5.727959999999999718e-01 -1.721270000000000022e-01 -2.245119999999999894e-01 9.560070000000000512e-01 4.156409999999999827e-01 5.656700000000000061e-01 -7.530630000000000379e-01 4.373929999999999763e-01 -3.960139999999999771e-01 -3.767880000000000118e-01 -5.427929999999999700e-01 -8.545620000000000438e-01 7.893510000000000248e-01 -1.206519999999999954e-01 -7.747680000000000122e-01 8.422549999999999759e-01 5.626780000000000115e-01 -3.361359999999999904e-01 1.034631999999999996e+00
-2.291289999999999993e-01 -4.813080000000000136e-01 -7.736819999999999808e-01 -7.023519999999999763e-01 5.231609999999999872e-01 -1.365566999999999975e+00 -1.684710000000000096e-01 -1.298080000000000067e-01 -5.952349999999999586e-01 5.100050000000000416e-01 8.760259999999999714e-01 -1.061730999999999980e+00 -3.479940000000000255e-01 -2.009120000000000072e-01 6.710970000000000546e-01 -4.360720000000000152e-01 1.486169999999999991e-01 -1.753989999999999994e-01 6.020900000000000141e-01 -1.837419999999999887e-01 2.040639999999999954e-01 9.374850000000000128e-01 -3.782059999999999866e-01 8.883459999999999690e-01 5.492390000000000327e-01 -5.868419999999999748e-01 4.490199999999999747e-01 -3.970600000000000240e-01 -1.786570000000000102e-01 1.206340000000000051e-01 -1.049070000000000003e-01 5.654919999999999947e-01 6.353680000000000438e-01 3.300830000000000153e-01 -6.886970000000000036e-01 -6.020569999999999533e-01 3.846269999999999967e-01 -3.940660000000000274e-01 -2.381669999999999898e-01 -1.171507999999999994e+00 9.660769999999999635e-01 1.041374000000000022e+00 -1.729500000000000134e-02 2.157229999999999981e-01 -4.362999999999999691e-03 -1.870400000000000118e-01 -6.371100000000000374e-02 1.593445999999999918e+00 -8.892970000000000041e-01 5.063000000000000139e-02 -4.800409999999999955e-01 3.001800000000000024e-01 8.613520000000000065e-01 6.479400000000000437e-02 4.213930000000000176e-01 -4.032999999999999780e-02 -4.199669999999999792e-01 6.160219999999999585e-01 -8.807989999999999986e-01 4.806400000000000255e-02
3.771660000000000013e-01 7.760400000000000631e-02 2.378599999999999881e-01 4.155999999999999972e-03 4.425199999999999967e-02 -2.026449999999999918e-01 -3.948929999999999940e-01 -1.423939999999999928e-01 -8.466400000000000314e-02 -1.840390000000000081e-01 -5.675050000000000372e-01 5.220999999999999946e-02 1.357300000000000000e-02 1.049690000000000067e-01 5.786069999999999824e-01 -2.612949999999999995e-01 -6.229379999999999917e-01 -4.451930000000000054e-01 -3.025559999999999916e-01 8.824700000000000599e-02 2.974450000000000149e-01 -1.751169999999999949e-01 -1.268000000000000030e-02 -4.771270000000000233e-01 1.706529999999999991e-01 4.993739999999999846e-01 -8.017499999999999627e-02 2.878120000000000123e-01 2.308419999999999916e-01 1.829010000000000080e-01 -3.787900000000000295e-02 -9.053600000000000536e-02 -7.308000000000000260e-03 -2.990430000000000033e-01 -8.888100000000000167e-02 3.909929999999999795e-01 -2.279740000000000100e-01 1.548869999999999969e-01 8.087999999999999357e-02 4.574909999999999810e-01 5.679499999999999826e-02 -9.252900000000000014e-02 1.421570000000000056e-01 6.165690000000000337e-01 1.258299999999999974e-01 3.499880000000000213e-01 -4.675929999999999809e-01 -2.541600000000000109e-02 3.187429999999999986e-01 2.288040000000000074e-01 -1.474949999999999872e-01 -6.009400000000000158e-02 -2.408220000000000083e-01 2.150519999999999932e-01 -2.222750000000000004e-01 5.575499999999999901e-01 -8.218210000000000237e-01 4.342700000000000032e-02 -4.265430000000000055e-01 2.225930000000000131e-01
-1.797209999999999919e-01 3.062259999999999982e-01 -1.691521999999999970e+00 -1.728129999999999944e-01 -4.457610000000000183e-01 1.538480000000000125e-01 -6.335150000000000503e-01 3.412399999999999878e-01 -6.601460000000000106e-01 -3.064500000000000002e-01 -2.566950000000000065e-01 6.246999999999999775e-02 7.851820000000000466e-01 -4.981360000000000232e-01 6.628799999999999970e-02 -7.892000000000000404e-02 -3.335429999999999784e-01 1.665499999999999967e-02 -3.490019999999999789e-01 2.092229999999999923e-01 -6.861699999999999744e-02 1.082173000000000052e+00 -1.180360000000000020e-01 5.098580000000000334e-01 5.358849999999999447e-01 7.845699999999999896e-02 -7.133399999999999463e-02 -9.300600000000000533e-02 -3.019300000000000109e-02 -2.990709999999999757e-01 -1.571499999999999980e-02 4.838810000000000056e-01 1.988880000000000092e-01 8.136910000000000531e-01 -2.836290000000000200e-01 -3.733210000000000139e-01 -4.288000000000000145e-02 -4.142830000000000124e-01 1.003924000000000039e+00 -8.488890000000000047e-01 5.561289999999999845e-01 -3.224219999999999864e-01 -4.308020000000000183e-01 6.891300000000000203e-02 5.333800000000000346e-02 -6.715020000000000433e-01 2.220469999999999944e-01 1.654220000000000135e-01 1.802449999999999886e-01 2.468309999999999949e-01 -5.784019999999999717e-01 2.191859999999999919e-01 7.364119999999999555e-01 4.837640000000000273e-01 -1.269039999999999890e-01 -5.434649999999999759e-01 9.296229999999999771e-01 3.337570000000000259e-01 -3.256169999999999898e-01 4.207580000000000209e-01
5.418300000000000338e-01 1.061880000000000046e-01 -3.437009999999999788e-01 5.977069999999999883e-01 -1.112773999999999930e+00 7.065949999999999731e-01 -6.146070000000000144e-01 -3.442620000000000124e-01 2.450019999999999976e-01 -9.133000000000000007e-01 2.754799999999999957e-02 -2.383898999999999990e+00 -1.833399999999999960e-02 -3.239009999999999945e-01 1.940199999999999911e-02 9.563099999999999379e-02 9.300799999999999346e-02 -7.067900000000000571e-02 -1.346147999999999900e+00 -8.430370000000000363e-01 4.259530000000000260e-01 6.737229999999999608e-01 2.043270000000000086e-01 -7.065209999999999546e-01 -1.931499999999999884e-02 6.231459999999999777e-01 -3.209599999999999953e-02 2.624429999999999819e-01 -5.859000000000000319e-02 -6.519040000000000390e-01 1.302709999999999979e-01 1.027592000000000061e+00 -8.321699999999999930e-02 2.857919999999999905e-01 -1.277429999999999954e-01 1.095288000000000039e+00 2.409599999999999936e-02 -7.231469999999999843e-01 8.487400000000000500e-02 -1.932010000000000116e-01 6.176500000000000323e-01 -9.520000000000000684e-02 6.810370000000000035e-01 5.169610000000000039e-01 -5.928729999999999833e-01 2.228539999999999965e-01 3.500619999999999843e-01 2.955521000000000065e+00 -3.180080000000000129e-01 -3.900700000000000001e-02 -3.549260000000000193e-01 -1.030183000000000071e+00 -3.204940000000000011e-01 -2.100730000000000097e-01 5.222790000000000488e-01 4.180699999999999694e-02 -2.279069999999999985e-01 4.154329999999999967e-01 2.846670000000000034e-01 2.203620000000000023e-01
-1.269939999999999958e-01 -2.167989999999999917e-01 -4.323080000000000256e-01 -1.790599999999999831e-02 -1.187129999999999991e-01 3.739129999999999954e-01 -4.022400000000000281e-02 -2.780059999999999754e-01 3.630909999999999971e-01 -1.827489999999999948e-01 -3.102949999999999875e-01 -1.034040999999999988e+00 4.220869999999999900e-01 3.792189999999999728e-01 9.348700000000000065e-02 -2.782729999999999926e-01 1.373899999999999948e-02 2.586040000000000005e-01 8.958000000000000684e-03 2.286370000000000069e-01 6.823000000000000072e-03 2.561930000000000041e-01 -3.849029999999999951e-01 5.913279999999999648e-01 5.158540000000000347e-01 2.805360000000000076e-01 -1.431310000000000082e-01 -1.162299999999999965e-02 1.862099999999999866e-01 -2.534339999999999926e-01 -2.191500000000000045e-02 5.209679999999999866e-01 -1.229390000000000066e-01 4.412949999999999928e-01 -2.135720000000000118e-01 -1.429269999999999985e-01 -3.827200000000000046e-02 2.191099999999999992e-01 5.787799999999999612e-01 -2.470569999999999988e-01 3.544519999999999893e-01 2.038739999999999997e-01 -3.158580000000000276e-01 -6.405099999999999683e-02 -5.725059999999999594e-01 -9.717599999999999849e-02 -3.170029999999999792e-01 1.021724999999999994e+00 -5.340549999999999464e-01 -1.488960000000000006e-01 3.736670000000000269e-01 -3.890999999999999927e-03 -9.043210000000000415e-01 -5.372949999999999671e-01 5.130299999999999860e-01 2.515060000000000073e-01 1.005299999999999944e-02 -2.414229999999999987e-01 5.221820000000000350e-01 -6.367660000000000542e-01
-6.594520000000000381e-01 -7.741599999999999870e-02 4.656060000000000199e-01 -1.034880000000000022e+00 -1.758299999999999863e-01 4.928119999999999723e-01 -1.728270000000000084e-01 -1.064700000000000021e-02 -4.939549999999999774e-01 -3.244070000000000009e-01 -1.023198999999999970e+00 4.545130000000000003e-01 6.650190000000000268e-01 3.355989999999999807e-01 -1.082538999999999918e+00 1.672450000000000048e-01 -2.799799999999999858e-02 -4.506600000000000189e-02 7.323490000000000277e-01 2.479929999999999912e-01 -7.823569999999999691e-01 1.839270000000000072e-01 1.409600000000000020e-01 -6.240160000000000151e-01 5.442770000000000108e-01 1.037088000000000010e+00 -8.822600000000000442e-01 4.291260000000000074e-01 8.586900000000000088e-02 -1.743520000000000070e-01 5.786379999999999857e-01 2.634000000000000057e-03 -7.293659999999999588e-01 8.833349999999999813e-01 8.646399999999999919e-02 -4.147370000000000223e-01 -4.492539999999999867e-01 -1.645800000000000041e-02 -4.944400000000000184e-02 -2.952640000000000264e-01 -3.068399999999999947e-02 1.427699999999999976e-02 9.841400000000000148e-02 2.883589999999999764e-01 8.188849999999999740e-01 4.133029999999999760e-01 -4.480779999999999763e-01 -3.050619999999999998e-01 -6.058590000000000364e-01 7.681219999999999715e-01 8.191420000000000368e-01 2.293189999999999951e-01 1.953040000000000054e-01 8.448520000000000474e-01 -9.844629999999999770e-01 -6.038989999999999636e-01 9.706609999999999960e-01 -3.985460000000000114e-01 -7.741820000000000368e-01 7.024059999999999748e-01
-5.184269999999999712e-01 -2.758760000000000101e-01 8.004959999999999853e-01 -5.288099999999999745e-02 -1.991819999999999979e-01 9.464129999999999487e-01 3.139200000000000323e-02 2.985360000000000236e-01 6.594750000000000334e-01 -1.542830000000000035e-01 3.295500000000000096e-01 5.816059999999999564e-01 3.734599999999999725e-02 3.986509999999999776e-01 2.046000000000000076e-03 3.865120000000000222e-01 -8.604000000000000536e-02 7.844729999999999759e-01 9.555299999999999905e-02 1.644529999999999881e-01 -5.805270000000000152e-01 -6.692090000000000538e-01 -3.247039999999999926e-01 -2.381280000000000063e-01 2.418760000000000077e-01 4.909350000000000103e-01 4.397299999999999820e-02 -8.915599999999999914e-02 -7.612999999999999767e-01 -2.487790000000000001e-01 2.560580000000000078e-01 7.500919999999999810e-01 -3.013799999999999812e-01 -2.088730000000000031e-01 -2.372140000000000082e-01 -6.291259999999999630e-01 9.612700000000000411e-02 4.458999999999999769e-02 -4.179000000000000076e-02 2.544319999999999915e-01 -2.373580000000000134e-01 -3.860100000000000336e-02 -2.919359999999999733e-01 -2.017889999999999961e-01 -3.292999999999999816e-01 5.934059999999999890e-01 -2.229599999999999985e-02 -6.844130000000000491e-01 -1.389680000000000082e-01 3.262550000000000172e-01 -1.942570000000000130e-01 -3.327789999999999915e-01 3.008800000000000016e-02 -1.361062999999999912e+00 1.344079999999999997e-01 -1.960000000000000075e-01 1.457970000000000099e-01 3.294019999999999726e-01 -2.913919999999999844e-01 6.830850000000000533e-01
-9.308099999999999707e-02 1.684720000000000106e-01 5.052929999999999922e-01 1.102889999999999981e-01 -5.161799999999999722e-01 -4.136279999999999957e-01 2.729759999999999964e-01 2.160249999999999948e-01 1.779729999999999923e-01 3.309499999999999942e-02 -6.932239999999999513e-01 1.028109999999999996e-01 -1.031709999999999988e-01 5.294600000000000001e-02 1.580300000000000107e-02 -2.729969999999999897e-01 4.196289999999999742e-01 3.432370000000000143e-01 4.232000000000000206e-01 -1.897300000000000098e-01 8.108899999999999997e-01 -1.313930000000000098e-01 -1.041199999999999938e-02 2.466619999999999924e-01 2.171329999999999927e-01 2.600339999999999874e-01 -4.361329999999999929e-01 -3.617489999999999872e-01 6.738199999999999745e-01 2.734179999999999944e-01 -3.057690000000000130e-01 -4.692500000000000143e-02 -9.063369999999999482e-01 -1.031949999999999951e-01 -2.248580000000000023e-01 -3.121499999999999830e-01 -8.009049999999999780e-01 4.011799999999999811e-01 -8.720149999999999846e-01 1.540839999999999987e-01 -4.909390000000000143e-01 4.702140000000000208e-01 -8.300899999999999945e-02 -2.006489999999999940e-01 3.383390000000000009e-01 4.912810000000000232e-01 -4.111810000000000187e-01 7.933999999999999941e-01 4.965030000000000276e-01 1.632099999999999940e-01 -3.620140000000000025e-01 -1.107329999999999981e-01 -1.723089999999999899e-01 -6.852200000000000513e-01 5.252600000000000324e-02 4.576680000000000192e-01 -1.109925000000000050e+00 1.149160000000000043e-01 1.434239999999999959e-01 1.019382000000000010e+00
-3.395059999999999745e-01 2.481279999999999875e-01 7.581820000000000226e-01 -1.108320000000000000e-01 -7.762989999999999613e-01 5.317800000000000304e-01 -1.423899999999999888e-01 -6.074999999999999845e-02 -1.034140000000000059e-01 6.602970000000000228e-01 4.990109999999999824e-01 1.696699999999999875e-01 -3.660499999999999865e-02 5.523909999999999654e-01 -7.468390000000000306e-01 2.673220000000000041e-01 -1.223699000000000092e+00 2.476480000000000070e-01 -1.919690000000000007e-01 3.306399999999999895e-01 -4.711899999999999977e-01 -3.310599999999999654e-02 -2.715259999999999896e-01 -6.542559999999999487e-01 -3.585869999999999891e-01 -9.464100000000000290e-02 3.775879999999999792e-01 4.723299999999999721e-02 -8.236900000000000333e-01 3.360909999999999731e-01 7.062640000000000029e-01 7.633499999999999730e-01 -4.566270000000000051e-01 -1.677530000000000132e-01 2.847009999999999819e-01 -9.804499999999999327e-02 -2.891190000000000149e-01 1.360449999999999993e-01 -7.320899999999999630e-02 5.490699999999999747e-02 -1.478959999999999997e-01 -5.054100000000000259e-02 1.881069999999999964e-01 3.967240000000000211e-01 8.716799999999999549e-02 -6.019060000000000521e-01 2.964209999999999900e-01 -1.645749999999999991e-01 -2.452080000000000093e-01 -4.270149999999999779e-01 6.026559999999999695e-01 2.836359999999999992e-01 9.231120000000000436e-01 -4.135539999999999772e-01 -5.660099999999999854e-02 -5.747600000000000486e-01 -2.923699999999999910e-02 3.658139999999999725e-01 -3.024800000000000058e-02 1.507060000000000066e-01