6.745110096000000333e+00 0.000000000000000000e+00 0.000000000000000000e+00 3.730374147000000029e+00 9.838129588999999342e+00 0.000000000000000000e+00 0.000000000000000000e+00 0.000000000000000000e+00 2.000000000000000000e+01
8.192878075999999510e+00 0.000000000000000000e+00 0.000000000000000000e+00 2.332064605999999873e+00 6.124561782999999870e+00 0.000000000000000000e+00 0.000000000000000000e+00 0.000000000000000000e+00 2.000000000000000000e+01
7.279980720000000183e+00 0.000000000000000000e+00 0.000000000000000000e+00 -3.854112492000000056e+00 6.675519126000000192e+00 0.000000000000000000e+00 0.000000000000000000e+00 0.000000000000000000e+00 2.000000000000000000e+01
8.437992963999999319e+00 0.000000000000000000e+00 0.000000000000000000e+00 -4.273599276999999752e+00 7.402091601999999604e+00 0.000000000000000000e+00 0.000000000000000000e+00 0.000000000000000000e+00 2.000000000000000000e+01
8.352192903000000612e+00 0.000000000000000000e+00 0.000000000000000000e+00 -4.181226724000000061e+00 7.242097635999999561e+00 0.000000000000000000e+00 0.000000000000000000e+00 0.000000000000000000e+00 2.000000000000000000e+01
8.201019880000000484e+00 0.000000000000000000e+00 0.000000000000000000e+00 -4.017261564000000007e+00 6.958101627999999650e+00 0.000000000000000000e+00 0.000000000000000000e+00 0.000000000000000000e+00 2.000000000000000000e+01
7.371857151000000385e+00 0.000000000000000000e+00 0.000000000000000000e+00 2.697735497000000038e+00 7.084901370999999948e+00 0.000000000000000000e+00 0.000000000000000000e+00 0.000000000000000000e+00 2.000000000000000000e+01
8.017691165000000453e+00 0.000000000000000000e+00 0.000000000000000000e+00 3.053092363000000198e+00 8.051931826000000569e+00 0.000000000000000000e+00 0.000000000000000000e+00 0.000000000000000000e+00 2.000000000000000000e+01
1.036538724200000061e+01 0.000000000000000000e+00 0.000000000000000000e+00 -3.721996847999999858e+00 6.446688102999999614e+00 0.000000000000000000e+00 0.000000000000000000e+00 0.000000000000000000e+00 2.000000000000000000e+01
8.876165152000000447e+00 0.000000000000000000e+00 0.000000000000000000e+00 -3.885700695999999787e+00 6.730231503999999809e+00 0.000000000000000000e+00 0.000000000000000000e+00 0.000000000000000000e+00 2.000000000000000000e+01
8.211792963000000611e+00 0.000000000000000000e+00 0.000000000000000000e+00 3.322778119000000085e+00 9.113859512999999524e+00 0.000000000000000000e+00 0.000000000000000000e+00 0.000000000000000000e+00 2.000000000000000000e+01
8.015736416999999392e+00 0.000000000000000000e+00 0.000000000000000000e+00 -3.979816363999999940e+00 6.893244635000000287e+00 0.000000000000000000e+00 0.000000000000000000e+00 0.000000000000000000e+00 2.000000000000000000e+01
7.971869448999999719e+00 0.000000000000000000e+00 0.000000000000000000e+00 -4.248096421999999706e+00 7.357919359000000270e+00 0.000000000000000000e+00 0.000000000000000000e+00 0.000000000000000000e+00 2.000000000000000000e+01
7.614706567999999898e+00 0.000000000000000000e+00 0.000000000000000000e+00 3.532564341000000052e+00 9.316445054000000781e+00 0.000000000000000000e+00 0.000000000000000000e+00 0.000000000000000000e+00 2.000000000000000000e+01
8.423414921000000888e+00 0.000000000000000000e+00 0.000000000000000000e+00 -4.296417979000000109e+00 7.441614756999999969e+00 0.000000000000000000e+00 0.000000000000000000e+00 0.000000000000000000e+00 2.000000000000000000e+01
8.620921490000000631e+00 0.000000000000000000e+00 0.000000000000000000e+00 2.871199500999999987e+00 7.707539002999999944e+00 0.000000000000000000e+00 0.000000000000000000e+00 0.000000000000000000e+00 2.000000000000000000e+01
8.654414208000000386e+00 0.000000000000000000e+00 0.000000000000000000e+00 -3.715560664999999929e+00 6.435540303999999878e+00 0.000000000000000000e+00 0.000000000000000000e+00 0.000000000000000000e+00 2.000000000000000000e+01
8.462244374999999152e+00 0.000000000000000000e+00 0.000000000000000000e+00 -4.125570664999999693e+00 7.145698505999999561e+00 0.000000000000000000e+00 0.000000000000000000e+00 0.000000000000000000e+00 2.000000000000000000e+01
6.938813668999999962e+00 0.000000000000000000e+00 0.000000000000000000e+00 -2.604557286999999999e+00 1.056280603499999948e+01 0.000000000000000000e+00 0.000000000000000000e+00 0.000000000000000000e+00 2.000000000000000000e+01
7.744104877999999914e+00 0.000000000000000000e+00 0.000000000000000000e+00 -4.106697772000000413e+00 7.113009695999999771e+00 0.000000000000000000e+00 0.000000000000000000e+00 0.000000000000000000e+00 2.000000000000000000e+01
6.719260286999999998e+00 0.000000000000000000e+00 0.000000000000000000e+00 -1.906845413999999961e+00 7.733229115000000320e+00 0.000000000000000000e+00 0.000000000000000000e+00 0.000000000000000000e+00 2.000000000000000000e+01
6.971371051000000207e+00 0.000000000000000000e+00 0.000000000000000000e+00 2.606445538000000006e+00 7.176406878999999961e+00 0.000000000000000000e+00 0.000000000000000000e+00 0.000000000000000000e+00 2.000000000000000000e+01
8.105376373000000356e+00 0.000000000000000000e+00 0.000000000000000000e+00 -4.356590299999999694e+00 7.545836279999999618e+00 0.000000000000000000e+00 0.000000000000000000e+00 0.000000000000000000e+00 2.000000000000000000e+01
8.159199685999999119e+00 0.000000000000000000e+00 0.000000000000000000e+00 3.044024266000000090e+00 8.053620301000000481e+00 0.000000000000000000e+00 0.000000000000000000e+00 0.000000000000000000e+00 2.000000000000000000e+01
9.985013135999999179e+00 0.000000000000000000e+00 0.000000000000000000e+00 2.340837110999999915e+00 6.209997468000000076e+00 0.000000000000000000e+00 0.000000000000000000e+00 0.000000000000000000e+00 2.000000000000000000e+01
7.526190578999999659e+00 0.000000000000000000e+00 0.000000000000000000e+00 2.579879640000000141e+00 6.825625956999999744e+00 0.000000000000000000e+00 0.000000000000000000e+00 0.000000000000000000e+00 2.000000000000000000e+01
7.706007147000000224e+00 0.000000000000000000e+00 0.000000000000000000e+00 2.893821913000000023e+00 7.768267322999999891e+00 0.000000000000000000e+00 0.000000000000000000e+00 0.000000000000000000e+00 2.000000000000000000e+01
6.492134788999999628e+00 0.000000000000000000e+00 0.000000000000000000e+00 -2.523595132000000074e+00 1.023446326999999911e+01 0.000000000000000000e+00 0.000000000000000000e+00 0.000000000000000000e+00 2.000000000000000000e+01
7.902583463000000030e+00 0.000000000000000000e+00 0.000000000000000000e+00 -3.968502159999999890e+00 6.873647856999999917e+00 0.000000000000000000e+00 0.000000000000000000e+00 0.000000000000000000e+00 2.000000000000000000e+01
8.043936279000000411e+00 0.000000000000000000e+00 0.000000000000000000e+00 -4.432684936000000242e+00 7.677636065999999815e+00 0.000000000000000000e+00 0.000000000000000000e+00 0.000000000000000000e+00 2.000000000000000000e+01
7.547481051000000107e+00 0.000000000000000000e+00 0.000000000000000000e+00 2.266501138999999831e+00 5.996515794999999649e+00 0.000000000000000000e+00 0.000000000000000000e+00 0.000000000000000000e+00 2.000000000000000000e+01
7.798209534999999804e+00 0.000000000000000000e+00 0.000000000000000000e+00 -2.494961924000000053e+00 1.011834103099999993e+01 0.000000000000000000e+00 0.000000000000000000e+00 0.000000000000000000e+00 2.000000000000000000e+01
7.002282407000000042e+00 0.000000000000000000e+00 0.000000000000000000e+00 -1.742023117000000010e+00 7.064790774000000440e+00 0.000000000000000000e+00 0.000000000000000000e+00 0.000000000000000000e+00 2.000000000000000000e+01
7.371763845000000259e+00 0.000000000000000000e+00 0.000000000000000000e+00 2.477117359999999824e+00 6.553746262999999850e+00 0.000000000000000000e+00 0.000000000000000000e+00 0.000000000000000000e+00 2.000000000000000000e+01
7.627380318000000159e+00 0.000000000000000000e+00 0.000000000000000000e+00 2.512829051999999841e+00 6.666274204999999675e+00 0.000000000000000000e+00 0.000000000000000000e+00 0.000000000000000000e+00 2.000000000000000000e+01
6.280092831000000153e+00 0.000000000000000000e+00 0.000000000000000000e+00 -2.500136787000000194e+00 1.013932773500000017e+01 0.000000000000000000e+00 0.000000000000000000e+00 0.000000000000000000e+00 2.000000000000000000e+01
6.800281939000000442e+00 0.000000000000000000e+00 0.000000000000000000e+00 -2.367699023000000125e+00 9.602225166000000200e+00 0.000000000000000000e+00 0.000000000000000000e+00 0.000000000000000000e+00 2.000000000000000000e+01
8.053482281999999159e+00 0.000000000000000000e+00 0.000000000000000000e+00 -4.171347564000000396e+00 7.224986427000000155e+00 0.000000000000000000e+00 0.000000000000000000e+00 0.000000000000000000e+00 2.000000000000000000e+01
7.001576996999999913e+00 0.000000000000000000e+00 0.000000000000000000e+00 3.750518416999999882e+00 9.891256148000000081e+00 0.000000000000000000e+00 0.000000000000000000e+00 0.000000000000000000e+00 2.000000000000000000e+01
6.658362690999999778e+00 0.000000000000000000e+00 0.000000000000000000e+00 -1.784566400000000108e+00 7.237325450000000160e+00 0.000000000000000000e+00 0.000000000000000000e+00 0.000000000000000000e+00 2.000000000000000000e+01
7.078069271999999579e+00 0.000000000000000000e+00 0.000000000000000000e+00 -2.164596400999999837e+00 8.778540616000000796e+00 0.000000000000000000e+00 0.000000000000000000e+00 0.000000000000000000e+00 2.000000000000000000e+01
7.202376605000000431e+00 0.000000000000000000e+00 0.000000000000000000e+00 3.848638036000000096e+00 1.015002738199999932e+01 0.000000000000000000e+00 0.000000000000000000e+00 0.000000000000000000e+00 2.000000000000000000e+01
8.112300776999999741e+00 0.000000000000000000e+00 0.000000000000000000e+00 2.669419635000000124e+00 7.321799610000000236e+00 0.000000000000000000e+00 0.000000000000000000e+00 0.000000000000000000e+00 2.000000000000000000e+01
8.270347881999999373e+00 0.000000000000000000e+00 0.000000000000000000e+00 -3.607629616000000095e+00 6.248598231999999975e+00 0.000000000000000000e+00 0.000000000000000000e+00 0.000000000000000000e+00 2.000000000000000000e+01
8.609523396000000162e+00 0.000000000000000000e+00 0.000000000000000000e+00 -3.780200832999999871e+00 6.547500367999999682e+00 0.000000000000000000e+00 0.000000000000000000e+00 0.000000000000000000e+00 2.000000000000000000e+01
8.205858511000000632e+00 0.000000000000000000e+00 0.000000000000000000e+00 3.322611667999999963e+00 8.762736089000000561e+00 0.000000000000000000e+00 0.000000000000000000e+00 0.000000000000000000e+00 2.000000000000000000e+01
8.928716475999999957e+00 0.000000000000000000e+00 0.000000000000000000e+00 -3.875777090999999785e+00 6.713043314000000095e+00 0.000000000000000000e+00 0.000000000000000000e+00 0.000000000000000000e+00 2.000000000000000000e+01
7.113516036000000042e+00 0.000000000000000000e+00 0.000000000000000000e+00 2.722455567999999992e+00 7.149822214000000287e+00 0.000000000000000000e+00 0.000000000000000000e+00 0.000000000000000000e+00 2.000000000000000000e+01
1.063810055499999940e+01 0.000000000000000000e+00 0.000000000000000000e+00 -4.160687559000000313e+00 7.206522756000000030e+00 0.000000000000000000e+00 0.000000000000000000e+00 0.000000000000000000e+00 2.000000000000000000e+01
7.081502239999999837e+00 0.000000000000000000e+00 0.000000000000000000e+00 -2.469377343000000113e+00 1.001458252900000012e+01 0.000000000000000000e+00 0.000000000000000000e+00 0.000000000000000000e+00 2.000000000000000000e+01
9.106665658000000718e+00 0.000000000000000000e+00 0.000000000000000000e+00 -3.465522613000000085e+00 6.002461665000000224e+00 0.000000000000000000e+00 0.000000000000000000e+00 0.000000000000000000e+00 2.000000000000000000e+01
7.788808326999999920e+00 0.000000000000000000e+00 0.000000000000000000e+00 -4.133393303000000074e+00 7.159247714000000151e+00 0.000000000000000000e+00 0.000000000000000000e+00 0.000000000000000000e+00 2.000000000000000000e+01
6.523155052999999981e+00 0.000000000000000000e+00 0.000000000000000000e+00 2.398175876999999900e+00 6.602971600000000052e+00 0.000000000000000000e+00 0.000000000000000000e+00 0.000000000000000000e+00 2.000000000000000000e+01
8.176496134000000637e+00 0.000000000000000000e+00 0.000000000000000000e+00 -4.066796162000000159e+00 7.043898075000000425e+00 0.000000000000000000e+00 0.000000000000000000e+00 0.000000000000000000e+00 2.000000000000000000e+01
6.894678231000000324e+00 0.000000000000000000e+00 0.000000000000000000e+00 -2.493305421000000077e+00 1.011162307100000035e+01 0.000000000000000000e+00 0.000000000000000000e+00 0.000000000000000000e+00 2.000000000000000000e+01
8.052687480999999536e+00 0.000000000000000000e+00 0.000000000000000000e+00 3.368527503000000145e+00 8.883830091000000095e+00 0.000000000000000000e+00 0.000000000000000000e+00 0.000000000000000000e+00 2.000000000000000000e+01
6.798407541999999637e+00 0.000000000000000000e+00 0.000000000000000000e+00 -1.844729174000000027e+00 7.481316131999999897e+00 0.000000000000000000e+00 0.000000000000000000e+00 0.000000000000000000e+00 2.000000000000000000e+01
8.145296507999999491e+00 0.000000000000000000e+00 0.000000000000000000e+00 -3.700448149000000075e+00 6.409364658000000325e+00 0.000000000000000000e+00 0.000000000000000000e+00 0.000000000000000000e+00 2.000000000000000000e+01
6.671147858000000319e+00 0.000000000000000000e+00 0.000000000000000000e+00 3.866976390000000041e+00 1.019839119200000077e+01 0.000000000000000000e+00 0.000000000000000000e+00 0.000000000000000000e+00 2.000000000000000000e+01
7.450299676000000204e+00 0.000000000000000000e+00 0.000000000000000000e+00 -3.929563969999999795e+00 6.806204928999999737e+00 0.000000000000000000e+00 0.000000000000000000e+00 0.000000000000000000e+00 2.000000000000000000e+01
6.841848133000000054e+00 0.000000000000000000e+00 0.000000000000000000e+00 2.420210125000000101e+00 6.663639174000000054e+00 0.000000000000000000e+00 0.000000000000000000e+00 0.000000000000000000e+00 2.000000000000000000e+01
8.518412223000000338e+00 0.000000000000000000e+00 0.000000000000000000e+00 -4.083729164000000189e+00 7.073226896000000430e+00 0.000000000000000000e+00 0.000000000000000000e+00 0.000000000000000000e+00 2.000000000000000000e+01
6.808287024000000187e+00 0.000000000000000000e+00 0.000000000000000000e+00 -2.044107503000000214e+00 8.289896781999999575e+00 0.000000000000000000e+00 0.000000000000000000e+00 0.000000000000000000e+00 2.000000000000000000e+01
8.274764704000000748e+00 0.000000000000000000e+00 0.000000000000000000e+00 -3.623169335000000046e+00 6.275513816000000133e+00 0.000000000000000000e+00 0.000000000000000000e+00 0.000000000000000000e+00 2.000000000000000000e+01
8.128336692999999613e+00 0.000000000000000000e+00 0.000000000000000000e+00 -4.301807907999999792e+00 7.450950386999999786e+00 0.000000000000000000e+00 0.000000000000000000e+00 0.000000000000000000e+00 2.000000000000000000e+01
8.148468055000000376e+00 0.000000000000000000e+00 0.000000000000000000e+00 3.410032090000000071e+00 9.185324234999999504e+00 0.000000000000000000e+00 0.000000000000000000e+00 0.000000000000000000e+00 2.000000000000000000e+01
6.787403829999999694e+00 0.000000000000000000e+00 0.000000000000000000e+00 -1.878039264000000097e+00 7.616405512000000044e+00 0.000000000000000000e+00 0.000000000000000000e+00 0.000000000000000000e+00 2.000000000000000000e+01
7.209366265999999968e+00 0.000000000000000000e+00 0.000000000000000000e+00 2.227112172000000001e+00 6.131976625000000070e+00 0.000000000000000000e+00 0.000000000000000000e+00 0.000000000000000000e+00 2.000000000000000000e+01
7.553652485999999833e+00 0.000000000000000000e+00 0.000000000000000000e+00 3.540768743000000107e+00 9.338082552999999564e+00 0.000000000000000000e+00 0.000000000000000000e+00 0.000000000000000000e+00 2.000000000000000000e+01
7.362852011000000196e+00 0.000000000000000000e+00 0.000000000000000000e+00 2.156995913999999903e+00 5.938923370000000368e+00 0.000000000000000000e+00 0.000000000000000000e+00 0.000000000000000000e+00 2.000000000000000000e+01
8.082648504999999872e+00 0.000000000000000000e+00 0.000000000000000000e+00 -4.465203518000000038e+00 7.733959907000000022e+00 0.000000000000000000e+00 0.000000000000000000e+00 0.000000000000000000e+00 2.000000000000000000e+01
7.107767992000000312e+00 0.000000000000000000e+00 0.000000000000000000e+00 -1.781478523999999952e+00 7.224802538999999690e+00 0.000000000000000000e+00 0.000000000000000000e+00 0.000000000000000000e+00 2.000000000000000000e+01
6.567525081000000320e+00 0.000000000000000000e+00 0.000000000000000000e+00 2.413900046000000188e+00 6.646265438000000358e+00 0.000000000000000000e+00 0.000000000000000000e+00 0.000000000000000000e+00 2.000000000000000000e+01
7.235808310000000354e+00 0.000000000000000000e+00 0.000000000000000000e+00 2.535857495000000128e+00 6.709155913000000027e+00 0.000000000000000000e+00 0.000000000000000000e+00 0.000000000000000000e+00 2.000000000000000000e+01
7.854569461999999724e+00 0.000000000000000000e+00 0.000000000000000000e+00 -4.296413336999999721e+00 7.441606714999999816e+00 0.000000000000000000e+00 0.000000000000000000e+00 0.000000000000000000e+00 2.000000000000000000e+01
7.642765424000000252e+00 0.000000000000000000e+00 0.000000000000000000e+00 3.691803005000000137e+00 9.736405771999999459e+00 0.000000000000000000e+00 0.000000000000000000e+00 0.000000000000000000e+00 2.000000000000000000e+01
7.522178446999999935e+00 0.000000000000000000e+00 0.000000000000000000e+00 3.569411147999999923e+00 9.413621272000000317e+00 0.000000000000000000e+00 0.000000000000000000e+00 0.000000000000000000e+00 2.000000000000000000e+01
8.199097487999999601e+00 0.000000000000000000e+00 0.000000000000000000e+00 2.814059949999999866e+00 7.390397323000000185e+00 0.000000000000000000e+00 0.000000000000000000e+00 0.000000000000000000e+00 2.000000000000000000e+01
7.232345379999999935e+00 0.000000000000000000e+00 0.000000000000000000e+00 -1.782457849000000039e+00 7.228774203999999592e+00 0.000000000000000000e+00 0.000000000000000000e+00 0.000000000000000000e+00 2.000000000000000000e+01
8.200168864000000113e+00 0.000000000000000000e+00 0.000000000000000000e+00 -4.174512874000000373e+00 7.230468905999999585e+00 0.000000000000000000e+00 0.000000000000000000e+00 0.000000000000000000e+00 2.000000000000000000e+01
7.039089265000000317e+00 0.000000000000000000e+00 0.000000000000000000e+00 2.822748449000000104e+00 7.413215410000000283e+00 0.000000000000000000e+00 0.000000000000000000e+00 0.000000000000000000e+00 2.000000000000000000e+01
8.344257125000000386e+00 0.000000000000000000e+00 0.000000000000000000e+00 -4.035863059999999614e+00 6.990320365999999730e+00 0.000000000000000000e+00 0.000000000000000000e+00 0.000000000000000000e+00 2.000000000000000000e+01
8.013723129000000611e+00 0.000000000000000000e+00 0.000000000000000000e+00 -4.083528996000000078e+00 7.072880193999999676e+00 0.000000000000000000e+00 0.000000000000000000e+00 0.000000000000000000e+00 2.000000000000000000e+01
6.973073141000000419e+00 0.000000000000000000e+00 0.000000000000000000e+00 2.428219960999999927e+00 6.685692902000000437e+00 0.000000000000000000e+00 0.000000000000000000e+00 0.000000000000000000e+00 2.000000000000000000e+01
8.579255792999999741e+00 0.000000000000000000e+00 0.000000000000000000e+00 -3.475166434000000137e+00 6.019165252999999716e+00 0.000000000000000000e+00 0.000000000000000000e+00 0.000000000000000000e+00 2.000000000000000000e+01
7.007433316000000190e+00 0.000000000000000000e+00 0.000000000000000000e+00 -2.610485971000000127e+00 1.058684986799999983e+01 0.000000000000000000e+00 0.000000000000000000e+00 0.000000000000000000e+00 2.000000000000000000e+01
8.314277657999999960e+00 0.000000000000000000e+00 0.000000000000000000e+00 3.269075519999999901e+00 8.621545005999999844e+00 0.000000000000000000e+00 0.000000000000000000e+00 0.000000000000000000e+00 2.000000000000000000e+01
7.571208735999999995e+00 0.000000000000000000e+00 0.000000000000000000e+00 2.719225586999999944e+00 7.141339508999999808e+00 0.000000000000000000e+00 0.000000000000000000e+00 0.000000000000000000e+00 2.000000000000000000e+01
7.972726648000000083e+00 0.000000000000000000e+00 0.000000000000000000e+00 -3.889641333999999784e+00 6.737056889999999854e+00 0.000000000000000000e+00 0.000000000000000000e+00 0.000000000000000000e+00 2.000000000000000000e+01
7.796510841999999997e+00 0.000000000000000000e+00 0.000000000000000000e+00 2.682919100999999973e+00 7.098238992999999830e+00 0.000000000000000000e+00 0.000000000000000000e+00 0.000000000000000000e+00 2.000000000000000000e+01
7.452165051999999790e+00 0.000000000000000000e+00 0.000000000000000000e+00 3.753538084000000108e+00 9.899219926000000669e+00 0.000000000000000000e+00 0.000000000000000000e+00 0.000000000000000000e+00 2.000000000000000000e+01
8.303958828000000736e+00 0.000000000000000000e+00 0.000000000000000000e+00 2.681744826000000081e+00 7.001838131999999604e+00 0.000000000000000000e+00 0.000000000000000000e+00 0.000000000000000000e+00 2.000000000000000000e+01
7.334040921999999796e+00 0.000000000000000000e+00 0.000000000000000000e+00 -3.676606728999999962e+00 6.368070104000000065e+00 0.000000000000000000e+00 0.000000000000000000e+00 0.000000000000000000e+00 2.000000000000000000e+01
7.893895975000000398e+00 0.000000000000000000e+00 0.000000000000000000e+00 -4.158150095999999962e+00 7.202127739999999889e+00 0.000000000000000000e+00 0.000000000000000000e+00 0.000000000000000000e+00 2.000000000000000000e+01
8.336251478999999520e+00 0.000000000000000000e+00 0.000000000000000000e+00 -4.039441658000000324e+00 6.996518680000000323e+00 0.000000000000000000e+00 0.000000000000000000e+00 0.000000000000000000e+00 2.000000000000000000e+01
8.705995220000000145e+00 0.000000000000000000e+00 0.000000000000000000e+00 2.826754055999999959e+00 7.588228241999999568e+00 0.000000000000000000e+00 0.000000000000000000e+00 0.000000000000000000e+00 2.000000000000000000e+01
7.658793672999999913e+00 0.000000000000000000e+00 0.000000000000000000e+00 3.365034210000000137e+00 9.229761347000000171e+00 0.000000000000000000e+00 0.000000000000000000e+00 0.000000000000000000e+00 2.000000000000000000e+01
9.343476732999999257e+00 0.000000000000000000e+00 0.000000000000000000e+00 -3.950375263999999831e+00 6.842251150000000059e+00 0.000000000000000000e+00 0.000000000000000000e+00 0.000000000000000000e+00 2.000000000000000000e+01
6.799198539999999902e+00 0.000000000000000000e+00 0.000000000000000000e+00 -2.132496656999999907e+00 8.648359807000000288e+00 0.000000000000000000e+00 0.000000000000000000e+00 0.000000000000000000e+00 2.000000000000000000e+01
8.349568736000000158e+00 0.000000000000000000e+00 0.000000000000000000e+00 2.779972392999999986e+00 7.488184014999999860e+00 0.000000000000000000e+00 0.000000000000000000e+00 0.000000000000000000e+00 2.000000000000000000e+01
