8.295139999999999958e+00 6.842539999999999623e+00 1.370420000000000016e+01 6.757719999999999949e+00 4.823809999999999931e+00 1.150450000000000017e+01 4.913100000000000023e+00 5.308399999999999785e-01 1.092839999999999989e+01 5.398760000000000225e+00 8.134800000000000253e+00 1.003389999999999915e+01 1.116849999999999898e+00 2.542009999999999881e+00 1.467800000000000082e+01 7.562999999999999723e+00 5.558629999999999960e+00 1.760229999999999961e+01 5.287779999999999703e+00 9.230750000000000455e+00 1.281840000000000046e+01 4.239950000000000330e+00 5.621809999999999974e+00 1.747060000000000102e+01 9.180410000000000181e+00 9.476549999999999585e+00 8.757979999999999876e+00 5.842190000000000438e+00 5.318179999999999907e+00 9.240280000000000271e+00 2.181589999999999918e+00 1.061700000000000088e+00 1.072620000000000040e+01 2.477409999999999890e+00 5.150019999999999598e+00 1.194270000000000032e+01 5.776519999999999655e+00 2.419329999999999981e+00 1.267680000000000007e+01 9.038719999999999644e+00 9.011559999999999349e+00 1.325869999999999926e+01 2.332390000000000185e+00 5.175270000000000259e+00 1.554059999999999953e+01 5.665280000000000094e+00 6.713090000000000224e+00 1.316910000000000025e+01 2.252040000000000042e+00 2.711799999999999766e-01 1.533210000000000051e+01 5.969430000000000014e+00 7.562079999999999913e+00 1.669940000000000069e+01 2.629710000000000214e+00 5.620860000000000412e+00 1.958340000000000103e+01 5.828450000000000131e+00 3.591549999999999798e+00 1.710450000000000159e+01
3.997259999999999813e+00 4.013889999999999958e+00 1.080940000000000012e+01 6.855839999999999712e+00 1.067439999999999944e+00 8.988839999999999719e+00 5.727899999999999991e+00 5.348629999999999995e+00 8.562760000000000815e+00 8.145440000000000680e+00 3.855830000000000091e+00 1.109919999999999973e+01 4.929470000000000240e+00 3.712200000000000166e+00 1.829439999999999955e+01 2.183149999999999924e+00 4.536399999999999877e-01 1.646730000000000160e+01 4.991920000000000357e+00 5.030799999999999716e-01 1.813629999999999853e+01 8.801370000000000360e+00 3.960830000000000073e+00 1.626450000000000173e+01 3.600089999999999790e+00 4.166699999999999626e+00 8.246629999999999683e+00 4.994979999999999976e+00 7.401900000000000146e-01 7.201130000000000031e+00 2.033329999999999860e+00 4.671730000000000160e+00 1.237310000000000088e+01 8.074920000000000542e+00 3.799830000000000041e+00 8.481009999999999494e+00 6.306049999999999933e+00 1.990709999999999980e+00 1.163080000000000069e+01 6.748129999999999740e+00 5.604420000000000179e+00 1.541450000000000031e+01 3.256889999999999841e+00 3.295160000000000089e+00 1.621470000000000056e+01 5.842120000000000424e+00 5.832950000000000301e+00 1.148409999999999975e+01 4.900909999999999656e+00 1.888290000000000024e+00 1.265900000000000081e-01 8.350479999999999237e+00 1.562929999999999930e+00 1.533130000000000059e+01 7.802410000000000068e+00 4.218410000000000437e+00 1.870759999999999934e+01 2.400570000000000093e+00 1.609700000000000020e-01 1.898130000000000095e+01
-3.255840000000000067e+00 6.078430000000000000e+00 1.208610000000000007e+01 -1.474809999999999954e+00 3.267030000000000101e+00 9.029350000000000875e+00 3.490500000000000269e-01 5.878730000000000011e+00 9.223079999999999501e+00 2.299720000000000208e+00 2.153970000000000162e+00 1.111280000000000001e+01 -1.831630000000000091e+00 3.268660000000000121e+00 1.791969999999999885e+01 -4.293299999999999894e-01 4.195999999999999730e+00 1.390339999999999954e+01 -1.106950000000000101e+00 6.456129999999999924e+00 1.811870000000000047e+01 1.738730000000000109e+00 4.463599999999999568e+00 1.783749999999999858e+01 -2.215510000000000090e+00 5.820389999999999731e+00 9.188769999999999882e+00 3.791209999999999969e+00 1.946499999999999897e+00 8.524810000000000443e+00 1.289630000000000054e+00 5.106130000000000280e+00 1.161079999999999934e+01 8.242099999999999982e-01 3.632859999999999978e+00 7.667060000000000208e+00 -3.523499999999999965e-01 1.874390000000000001e+00 1.112410000000000032e+01 1.138749999999999929e+00 6.647240000000000038e+00 1.655069999999999908e+01 4.183930000000000149e+00 3.857930000000000081e+00 1.342089999999999961e+01 2.523820000000000174e+00 6.515800000000000480e-01 1.308600000000000030e+01 3.230589999999999851e+00 2.620179999999999954e+00 1.921039999999999992e+01 2.971099999999999852e-01 2.681200000000000028e+00 1.602749999999999986e+01 -1.656100000000000072e-01 5.051929999999999588e+00 2.044600000000000029e-01 -2.978909999999999947e+00 5.184639999999999915e+00 1.669290000000000163e+01
4.861199999999999966e-01 4.222209999999999575e+00 1.044870000000000054e+01 2.198259999999999881e+00 8.046699999999999964e-01 1.112870000000000026e+01 5.336470000000000269e+00 4.451279999999999681e+00 1.240639999999999965e+01 7.103309999999999569e+00 5.334600000000000453e-01 1.224520000000000053e+01 -7.544499999999999540e-01 6.605139999999999567e+00 1.546490000000000009e+01 1.127499999999999947e+00 3.034009999999999874e+00 1.520529999999999937e+01 3.396279999999999966e+00 5.818769999999999776e+00 1.631090000000000018e+01 5.480949999999999989e+00 2.174999999999999822e+00 1.592989999999999995e+01 6.825440000000000396e+00 2.650609999999999911e+00 1.060299999999999976e+01 4.374200000000000088e+00 6.709430000000000227e+00 1.036599999999999966e+01 2.157099999999999795e+00 2.904020000000000046e+00 9.480689999999999173e+00 1.437799999999999911e-01 6.873310000000000031e+00 1.044030000000000058e+01 1.063090000000000090e+00 1.094249999999999945e+00 1.363640000000000008e+01 -8.745500000000000496e-01 4.580379999999999896e+00 1.359699999999999953e+01 4.813150000000000261e+00 1.232739999999999947e+00 1.335089999999999932e+01 3.221699999999999786e+00 4.825569999999999915e+00 1.376179999999999914e+01 -2.739920000000000133e+00 4.842609999999999637e+00 1.714170000000000016e+01 7.391519999999999868e+00 9.436900000000000288e-01 1.706080000000000041e+01 1.158670000000000089e+00 4.798580000000000290e+00 1.711759999999999948e+01 2.754980000000000206e+00 1.068659999999999943e+00 1.685360000000000014e+01
2.063039999999999985e+00 1.618370000000000086e+00 1.177239999999999931e+01 3.017799999999999927e-01 5.235109999999999708e+00 1.086940000000000062e+01 6.364440000000000097e+00 1.132500000000000062e+00 1.183399999999999963e+01 4.679599999999999760e+00 4.434779999999999944e+00 1.146149999999999913e+01 1.796259999999999968e+00 9.198800000000000310e-01 1.592079999999999984e+01 -4.760199999999999987e-01 4.246310000000000251e+00 1.610190000000000055e+01 6.182890000000000441e+00 1.711310000000000109e+00 1.627149999999999963e+01 3.543109999999999982e+00 4.855680000000000440e+00 1.507140000000000057e+01 4.556799999999999740e-01 2.509500000000000064e-01 1.030359999999999943e+01 -1.552329999999999988e+00 3.485510000000000108e+00 1.032450000000000045e+01 4.422150000000000247e+00 6.217300000000000049e-01 1.009709999999999930e+01 2.589049999999999851e+00 3.655530000000000168e+00 9.790050000000000807e+00 3.734299999999999842e-01 2.140849999999999920e+00 1.354950000000000010e+01 -2.245680000000000121e+00 5.396160000000000068e+00 1.402270000000000039e+01 4.109549999999999592e+00 2.704410000000000203e+00 1.347910000000000075e+01 1.443740000000000023e+00 6.394689999999999763e+00 1.323390000000000022e+01 3.661150000000000126e+00 6.925810000000000244e+00 1.708920000000000172e+01 -1.987489999999999979e+00 3.535950000000000149e+00 1.823069999999999879e+01 1.098399999999999932e-01 7.032659999999999911e+00 1.613850000000000051e+01 1.976779999999999982e+00 3.723469999999999835e+00 1.692830000000000013e+01
2.307580000000000187e+00 4.494150000000000311e+00 8.396369999999999223e+00 5.140100000000000335e+00 2.188899999999999846e+00 7.693290000000000184e+00 -9.680900000000000061e-01 5.008829999999999671e+00 7.447680000000000078e+00 1.279519999999999991e+00 1.442579999999999973e+00 6.155990000000000073e+00 1.101700000000000040e-01 4.222000000000000058e-02 1.922759999999999891e+01 5.807570000000000121e+00 3.586829999999999963e+00 1.925730000000000075e+01 1.265500000000000069e+00 3.629039999999999822e+00 1.988690000000000069e+01 -6.432600000000000540e-01 6.808270000000000266e+00 1.153270000000000017e+00 -1.105029999999999957e+00 3.209890000000000132e+00 5.624259999999999593e+00 1.414630000000000054e+00 6.740450000000000053e+00 6.972570000000000157e+00 4.204119999999999635e+00 3.201220000000000176e+00 9.938200000000000145e+00 -3.225760000000000183e+00 6.032119999999999926e+00 6.530479999999999841e+00 -3.296999999999999931e-02 3.966279999999999806e+00 9.509460000000000690e+00 3.154199999999999893e+00 3.570120000000000182e+00 6.030359999999999943e+00 -3.664100000000000135e-01 2.260780000000000012e+00 1.802520000000000167e+01 3.215390000000000192e+00 4.637190000000000367e+00 1.850590000000000046e+01 -1.367299999999999960e+00 5.815159999999999663e+00 1.859530000000000172e+01 5.290779999999999816e+00 9.794300000000000228e-01 1.991159999999999997e+01 1.040480000000000071e+00 4.801900000000000057e-01 1.800839999999999996e+00 3.418000000000000205e-02 4.290779999999999816e+00 1.867990000000000039e+00
3.570149999999999935e+00 5.272170000000000023e+00 1.105840000000000067e+01 5.236299999999999955e+00 2.748899999999999899e+00 9.231790000000000163e+00 6.904810000000000336e+00 5.830309999999999881e+00 9.649779999999999802e+00 7.859490000000000087e+00 2.931420000000000137e+00 1.215249999999999986e+01 5.406229999999999869e+00 3.768590000000000106e+00 1.772360000000000113e+01 5.244089999999999918e+00 5.662289999999999601e+00 1.447499999999999964e+01 6.819650000000000212e+00 6.925749999999999851e+00 1.802049999999999841e+01 8.920759999999999579e+00 5.020550000000000068e+00 1.633210000000000051e+01 4.249520000000000408e+00 5.685139999999999638e+00 8.699299999999999145e+00 4.023979999999999890e+00 8.015600000000000502e-01 8.124499999999999389e+00 8.264279999999999404e+00 5.677150000000000141e+00 1.190019999999999989e+01 7.762550000000000061e+00 3.369610000000000216e+00 9.245329999999999160e+00 5.029239999999999711e+00 3.180200000000000138e+00 1.192089999999999961e+01 4.786649999999999849e+00 4.817500000000000115e-01 1.554989999999999917e+01 3.515400000000000080e+00 3.829759999999999831e+00 1.506559999999999988e+01 1.598959999999999937e+00 4.494900000000000007e-01 1.256920000000000037e+01 5.532519999999999882e+00 2.014540000000000219e+00 1.939750000000000085e+01 7.195750000000000313e+00 3.510409999999999808e+00 1.501980000000000004e+01 8.092919999999999447e+00 4.937050000000000161e+00 1.874520000000000053e+01 4.362770000000000259e+00 6.520850000000000257e+00 1.792470000000000141e+01
3.331539999999999946e+00 4.419679999999999609e+00 1.195209999999999972e+01 7.546940000000000204e+00 3.985009999999999941e+00 1.184019999999999939e+01 9.451409999999999201e+00 6.880020000000000024e+00 1.069619999999999926e+01 4.958829999999999849e+00 6.857879999999999754e+00 1.047879999999999967e+01 9.972299999999999498e-01 2.394769999999999843e+00 1.561359999999999992e+01 7.458179999999999588e+00 5.842800000000000438e+00 1.644089999999999918e+01 5.848770000000000024e+00 1.146239999999999926e+00 1.709380000000000166e+01 5.006719999999999615e+00 4.049760000000000026e+00 1.511079999999999934e+01 3.103219999999999867e+00 7.272549999999999848e+00 8.921419999999999462e+00 5.162349999999999994e+00 4.086529999999999774e+00 1.020509999999999984e+01 4.074810000000000265e+00 6.015000000000000208e-02 1.112899999999999956e+01 9.188119999999999621e+00 4.032449999999999868e+00 9.991319999999999979e+00 6.958829999999999849e+00 2.184800000000000075e+00 1.357329999999999970e+01 2.993050000000000210e+00 6.955210000000000115e+00 1.267900000000000027e+01 3.183530000000000193e+00 2.458410000000000206e+00 1.365399999999999991e+01 6.271480000000000388e+00 5.755989999999999718e+00 1.397349999999999959e+01 2.575399999999999912e-01 4.568999999999999728e-01 1.732969999999999899e+01 5.623050000000000104e+00 3.927109999999999879e+00 1.768100000000000094e+01 6.838499999999999801e+00 8.039669999999999206e+00 1.779230000000000089e+01 9.692719999999999558e+00 4.781320000000000014e+00 1.639529999999999887e+01
1.574089999999999989e+00 3.497799999999999798e-01 1.010779999999999923e+01 8.713199999999999834e-01 6.309210000000000207e+00 1.117520000000000024e+01 4.691019999999999968e+00 6.309219999999999828e+00 1.150249999999999950e+01 -1.422690000000000010e+00 4.146969999999999601e+00 1.342019999999999946e+01 2.658349999999999991e+00 9.876000000000000056e-02 1.643280000000000030e+01 6.109900000000000331e-01 3.696849999999999969e+00 1.597920000000000051e+01 -1.811200000000000032e-01 7.053899999999999615e-01 1.467500000000000071e+01 4.854370000000000296e+00 2.823119999999999852e+00 1.513899999999999935e+01 9.560869999999999536e+00 1.226320000000000077e+00 9.439640000000000697e+00 -1.146689999999999987e+00 4.555930000000000035e+00 1.085180000000000078e+01 3.813480000000000203e+00 2.211530000000000218e+00 1.142839999999999989e+01 2.840380000000000127e+00 4.796120000000000161e+00 1.057709999999999972e+01 1.070240000000000080e+00 3.092789999999999928e+00 1.312950000000000017e+01 2.846929999999999961e+00 3.463300000000000267e-01 1.366249999999999964e+01 7.938710000000000377e+00 1.350230000000000041e+00 1.389109999999999978e+01 6.216470000000000162e+00 4.866389999999999993e+00 1.370969999999999978e+01 3.041200000000000014e-01 1.313509999999999955e+00 1.710409999999999897e+01 4.973600000000000243e+00 8.519400000000000306e-01 1.699719999999999942e+01 -2.003449999999999953e+00 4.292010000000000325e+00 1.725359999999999872e+01 3.051159999999999872e+00 4.109270000000000422e+00 1.637059999999999960e+01
4.872840000000000060e+00 4.207679999999999865e+00 1.220289999999999964e+01 1.872929999999999984e+00 6.398810000000000109e+00 1.151009999999999955e+01 -3.242200000000000082e-01 3.655450000000000088e+00 1.124430000000000085e+01 2.008410000000000029e+00 4.122600000000000153e-01 1.129299999999999926e+01 -2.563099999999999934e+00 5.644680000000000142e+00 1.642539999999999978e+01 -5.732599999999999918e-01 2.602269999999999861e+00 1.585810000000000031e+01 2.429920000000000080e+00 6.687500000000000000e+00 1.483210000000000051e+01 3.246020000000000127e+00 2.907919999999999838e+00 1.564840000000000053e+01 1.906500000000000083e+00 2.802560000000000162e+00 1.030959999999999965e+01 -2.201799999999999868e-01 5.967220000000000191e+00 9.823259999999999437e+00 6.144239999999999924e+00 2.277839999999999865e+00 1.089020000000000010e+01 4.192750000000000199e+00 5.959089999999999776e+00 1.038920000000000066e+01 -5.288100000000000023e-01 1.374670000000000059e+00 1.365220000000000056e+01 3.881629999999999914e+00 2.232779999999999987e+00 1.344170000000000087e+01 -1.818529999999999980e+00 5.366480000000000139e+00 1.321770000000000067e+01 8.423199999999999577e-01 5.174690000000000012e+00 1.347029999999999994e+01 3.779889999999999972e+00 5.246109999999999829e+00 1.696109999999999829e+01 5.657519999999999882e+00 1.774580000000000046e+00 1.675270000000000081e+01 -4.998400000000000065e-01 4.759109999999999729e+00 1.758010000000000161e+01 1.339310000000000000e+00 1.536780000000000035e+00 1.711779999999999902e+01
6.409819999999999851e+00 1.799809999999999910e+00 1.133140000000000036e+01 2.877310000000000034e+00 4.408699999999999619e+00 1.259880000000000067e+01 2.043070000000000164e+00 1.330640000000000045e+00 1.154080000000000084e+01 7.162309999999999732e+00 6.266449999999999854e+00 1.118950000000000067e+01 9.732509999999999550e+00 8.638540000000000774e+00 1.473809999999999931e+01 5.202700000000000102e+00 6.823820000000000441e+00 1.560859999999999914e+01 1.093059999999999921e+00 2.228190000000000115e+00 1.580540000000000056e+01 7.857689999999999841e+00 5.680290000000000283e+00 1.588569999999999993e+01 4.005090000000000039e+00 1.473800000000000110e-01 1.045059999999999967e+01 8.683239999999999625e+00 3.896510000000000140e+00 1.204470000000000063e+01 8.412119999999999820e+00 9.240599999999999925e-01 9.898149999999999338e+00 5.192560000000000286e+00 4.088530000000000442e+00 1.051239999999999952e+01 6.961120000000000196e+00 1.858780000000000099e+00 1.424160000000000004e+01 9.245589999999999975e+00 6.342789999999999928e+00 1.356300000000000061e+01 4.505499999999999616e+00 6.714920000000000222e+00 1.313310000000000066e+01 3.318970000000000198e+00 2.369419999999999860e+00 1.397910000000000075e+01 7.676590000000000025e+00 8.344129999999999825e+00 1.633800000000000097e+01 1.687769999999999992e+00 4.276430000000000398e+00 1.701589999999999847e+01 3.582629999999999981e+00 8.667460000000000164e+00 1.664939999999999998e+01 5.571119999999999628e+00 4.380630000000000024e+00 1.629380000000000095e+01
3.568360000000000198e+00 4.366800000000000126e-01 9.502969999999999473e+00 -2.250550000000000050e+00 6.168319999999999581e+00 1.391719999999999935e+01 -5.904399999999999649e-01 1.189610000000000056e+00 1.000099999999999945e+01 -2.084820000000000118e+00 4.403340000000000032e+00 9.269909999999999428e+00 1.247999999999999998e+00 7.345000000000000417e-01 1.820939999999999870e+01 -4.599400000000000155e-01 4.128630000000000244e+00 1.676020000000000110e+01 -1.390670000000000073e+00 2.794789999999999885e+00 1.283689999999999998e+01 3.966349999999999820e+00 4.142570000000000086e+00 1.793209999999999837e+01 -2.838659999999999961e+00 6.612980000000000302e+00 8.070159999999999556e+00 5.838600000000000456e-01 4.198780000000000179e+00 9.127969999999999473e+00 5.343009999999999593e+00 5.478199999999999736e-01 1.198739999999999917e+01 5.266090000000000160e+00 2.140880000000000116e+00 8.054190000000000182e+00 1.234100000000000058e-01 4.898509999999999920e+00 1.417409999999999926e+01 4.722730000000000317e+00 4.375519999999999854e+00 1.198629999999999995e+01 1.357690000000000063e+00 1.200129999999999919e+00 1.209720000000000084e+01 -6.621099999999999763e-01 6.498149999999999871e+00 1.826030000000000086e+01 -3.717810000000000059e+00 6.726539999999999964e+00 1.586090000000000089e+01 5.630250000000000199e+00 2.631629999999999914e+00 1.678600000000000136e+01 3.979480000000000128e+00 6.051040000000000418e+00 1.946340000000000003e+01 1.666150000000000020e+00 3.190399999999999903e+00 1.860439999999999827e+01
2.266389999999999905e+00 3.697909999999999808e+00 8.734909999999999286e+00 4.555790000000000006e+00 1.972099999999999964e+00 7.193740000000000023e+00 -1.686400000000000121e-01 5.517089999999999606e+00 7.562820000000000320e+00 2.933799999999999741e-01 2.017920000000000158e+00 6.166579999999999728e+00 -3.970209999999999795e+00 7.303079999999999572e+00 1.933800000000000097e+01 3.911350000000000104e+00 3.386750000000000149e+00 1.883719999999999928e+01 6.676499999999999657e-01 3.190980000000000150e+00 5.669300000000000450e-01 -5.047000000000000375e-01 7.063060000000000116e+00 1.992559999999999931e+01 -1.725689999999999946e+00 3.717830000000000190e+00 5.309479999999999755e+00 6.073059999999999903e+00 2.895999999999999963e-02 7.020850000000000257e+00 4.423540000000000028e+00 3.200369999999999937e+00 9.727499999999999147e+00 -2.111730000000000107e+00 6.906049999999999578e+00 6.715160000000000018e+00 -2.039600000000000024e-01 4.027890000000000192e+00 9.498390000000000555e+00 2.876650000000000151e+00 3.841169999999999973e+00 6.051750000000000185e+00 1.162930000000000019e+00 2.343080000000000052e+00 1.817670000000000030e+01 1.950260000000000105e+00 5.546700000000000408e+00 1.949970000000000070e+01 -2.074300000000000033e+00 6.124500000000000277e+00 1.807560000000000144e+01 4.871039999999999814e+00 1.981360000000000010e+00 6.847900000000000098e-01 7.857199999999999740e-01 7.171199999999999797e-01 1.928960000000000008e+00 -2.624500000000000166e-01 4.855500000000000149e+00 1.921159999999999979e+00
9.451599999999999113e+00 5.825389999999999624e+00 1.271400000000000041e+01 6.473510000000000097e+00 4.894630000000000258e+00 1.130899999999999928e+01 5.394050000000000011e+00 7.573800000000000532e-01 1.157460000000000022e+01 4.190979999999999706e+00 8.722730000000000317e+00 1.055450000000000088e+01 7.582810000000000272e+00 1.962280000000000024e+00 1.448879999999999946e+01 9.177210000000000534e+00 4.916210000000000413e+00 1.723430000000000106e+01 5.999839999999999840e+00 8.561820000000000874e+00 1.387420000000000009e+01 5.718259999999999899e+00 5.092679999999999652e+00 1.647159999999999869e+01 6.187960000000000349e+00 2.947199999999999820e-01 9.352140000000000342e+00 4.681729999999999947e+00 6.476759999999999629e+00 9.871959999999999624e+00 2.409969999999999946e+00 1.078009999999999913e+00 1.152210000000000001e+01 8.818059999999999121e+00 5.066159999999999997e+00 1.062589999999999968e+01 5.416990000000000194e+00 2.970139999999999780e+00 1.311079999999999934e+01 1.028247999999999962e+01 8.274229999999999308e+00 1.328009999999999913e+01 2.271710000000000118e+00 3.972999999999999865e+00 1.468280000000000030e+01 6.601600000000000357e+00 6.171499999999999986e+00 1.372930000000000028e+01 1.318249999999999922e+00 3.040700000000000069e-01 1.599109999999999943e+01 7.438060000000000116e+00 6.769230000000000302e+00 1.728450000000000131e+01 3.863939999999999930e+00 4.815310000000000201e+00 1.832430000000000092e+01 7.112870000000000026e+00 2.980929999999999858e+00 1.701170000000000115e+01
1.032080000000000108e+00 7.414320000000000022e+00 8.956390000000000740e+00 3.866709999999999869e+00 2.648730000000000029e+00 8.822240000000000748e+00 -2.292209999999999859e+00 5.430740000000000123e+00 9.822919999999999874e+00 2.142000000000000154e-02 3.219829999999999970e+00 8.482620000000000715e+00 -3.333180000000000032e+00 6.961990000000000123e+00 1.817050000000000054e+01 -1.078810000000000047e+00 3.232369999999999965e+00 1.816460000000000008e+01 2.829779999999999962e+00 2.849390000000000089e+00 1.801129999999999853e+01 2.180600000000000038e-01 6.793079999999999785e+00 1.883480000000000132e+01 5.788999999999999702e+00 4.169730000000000381e+00 7.439040000000000319e+00 2.647920000000000051e+00 4.389600000000000168e-01 8.659230000000000871e+00 4.123520000000000074e+00 4.171330000000000204e+00 1.113990000000000080e+01 7.912320000000000242e+00 6.705200000000000049e-01 9.331080000000000041e+00 3.033100000000000240e-01 5.106530000000000236e+00 1.022799999999999976e+01 2.144519999999999982e+00 3.445269999999999833e+00 6.925019999999999953e+00 7.092300000000000271e-01 1.749989999999999934e+00 1.672309999999999874e+01 5.017210000000000392e+00 1.751169999999999893e+00 1.714799999999999969e+01 -1.173470000000000013e+00 5.722900000000000098e+00 1.673089999999999833e+01 2.830620000000000136e+00 5.487090000000000245e+00 1.863220000000000098e+01 2.854900000000000215e+00 8.658799999999999830e-01 2.195000000000000007e-01 -4.775900000000000145e-01 4.368019999999999570e+00 6.801999999999999713e-02
1.858160000000000034e+00 2.879659999999999886e+00 1.194020000000000081e+01 8.693009999999999238e+00 6.942999999999999616e+00 1.071129999999999960e+01 6.606819999999999915e+00 2.517430000000000057e+00 1.105039999999999978e+01 3.013139999999999930e+00 7.343189999999999884e+00 1.213049999999999962e+01 4.715860000000000163e+00 7.190080000000000027e+00 1.597300000000000075e+01 7.442689999999999806e+00 2.679749999999999854e+00 1.742520000000000024e+01 9.001509999999999678e+00 7.234029999999999738e+00 1.624810000000000088e+01 2.215910000000000046e+00 3.303030000000000133e+00 1.516849999999999987e+01 9.816399999999999570e-01 1.245649999999999924e+00 1.006419999999999959e+01 6.123579999999999579e+00 6.975109999999999921e+00 9.356619999999999493e+00 4.634280000000000399e+00 1.301099999999999923e+00 8.956049999999999400e+00 1.981130000000000058e+00 5.258359999999999701e+00 1.086599999999999966e+01 8.346230000000000260e+00 3.157439999999999802e+00 1.355320000000000036e+01 4.969879999999999853e+00 6.568900000000000183e+00 1.356540000000000035e+01 3.946530000000000094e+00 3.126040000000000152e+00 1.345180000000000042e+01 9.266429999999999723e+00 7.483419999999999739e+00 1.330910000000000082e+01 2.596099999999999852e+00 5.735089999999999577e+00 1.659140000000000015e+01 5.179850000000000065e+00 2.005469999999999864e+00 1.729019999999999868e+01 6.827939999999999898e+00 5.593189999999999884e+00 1.684029999999999916e+01 1.424960000000000004e+00 1.865269999999999984e+00 1.738800000000000168e+01
6.418540000000000134e+00 1.975929999999999964e+00 9.504469999999999530e+00 5.448199999999999932e+00 5.158070000000000377e+00 8.065860000000000696e+00 4.729409999999999670e+00 1.721759999999999957e+00 1.330959999999999965e+01 3.960370000000000168e+00 5.149510000000000254e+00 1.204499999999999993e+01 4.803169999999999717e+00 5.181900000000000395e-01 1.797060000000000102e+01 2.449409999999999865e+00 4.655969999999999942e+00 1.532179999999999964e+01 5.038090000000000401e+00 6.090239999999999654e+00 1.815810000000000102e+01 -6.831000000000000405e-01 2.378499999999999837e+00 1.563400000000000034e+01 1.677410000000000068e+00 6.379520000000000302e+00 1.145429999999999993e+01 4.439079999999999693e+00 2.448490000000000055e+00 7.727129999999999832e+00 1.010199999999999987e-01 9.637000000000000011e-01 8.929869999999999308e+00 -1.002220000000000111e+00 3.771490000000000009e+00 7.693859999999999921e+00 2.416080000000000005e+00 3.237010000000000165e+00 1.289569999999999972e+01 -9.849999999999999381e-03 4.812719999999999665e+00 1.559919999999999973e+01 5.919389999999999930e+00 3.716819999999999791e+00 1.182990000000000030e+01 4.791640000000000121e+00 5.779869999999999841e+00 1.520350000000000001e+01 2.376259999999999817e+00 1.351949999999999985e+00 1.811599999999999966e+01 6.904429999999999623e+00 1.991859999999999964e+00 1.849549999999999983e+01 2.666199999999999903e+00 4.602089999999999570e+00 1.833360000000000056e+01 5.005180000000000184e+00 2.043159999999999865e+00 1.589199999999999946e+01
1.164080000000000004e+00 9.026899999999999924e-01 1.189129999999999932e+01 -1.267220000000000013e+00 4.751579999999999693e+00 1.157029999999999959e+01 5.567789999999999573e+00 1.710700000000000109e+00 1.042249999999999943e+01 2.721579999999999888e+00 5.466059999999999697e+00 1.086829999999999963e+01 2.515480000000000160e+00 2.545999999999999930e-01 1.557990000000000030e+01 1.058789999999999898e+00 4.689739999999999576e+00 1.676579999999999870e+01 7.187739999999999796e+00 1.226339999999999986e+00 1.454940000000000033e+01 5.237919999999999909e+00 4.631569999999999965e+00 1.726960000000000051e+01 7.769910000000000316e+00 4.297699999999999854e-01 9.734510000000000218e+00 5.114609999999999879e+00 4.317370000000000374e+00 1.001919999999999966e+01 3.383750000000000036e+00 1.419799999999999951e-01 1.054759999999999920e+01 8.985400000000000054e-01 4.046800000000000175e+00 9.898490000000000677e+00 1.703740000000000032e+00 2.486139999999999795e+00 1.415349999999999930e+01 -3.213179999999999925e+00 5.780420000000000336e+00 1.397289999999999921e+01 5.766820000000000057e+00 2.604229999999999823e+00 1.324649999999999928e+01 2.659749999999999837e+00 5.471779999999999866e+00 1.356010000000000026e+01 -3.406690000000000218e+00 7.035370000000000346e+00 1.776500000000000057e+01 -8.511699999999999822e-01 2.863869999999999916e+00 1.703089999999999904e+01 1.287560000000000038e+00 7.128140000000000143e+00 1.640099999999999980e+01 2.959350000000000147e+00 3.211980000000000057e+00 1.742940000000000111e+01
1.274489999999999901e+00 7.195159999999999556e+00 1.291269999999999918e+01 -2.329400000000000082e-01 4.356539999999999857e+00 1.005380000000000074e+01 2.040119999999999933e+00 9.505340000000000344e+00 1.064010000000000034e+01 -1.252510000000000012e+00 7.920139999999999958e+00 1.048830000000000062e+01 1.577620000000000022e+00 3.256979999999999986e+00 1.526159999999999961e+01 1.030299999999999994e+00 6.086459999999999759e+00 1.766379999999999839e+01 2.373069999999999791e+00 9.607299999999999729e-01 1.330949999999999989e+01 4.513919999999999710e+00 5.837690000000000268e+00 1.765149999999999864e+01 4.329069999999999752e+00 9.862840000000000273e+00 9.652919999999999945e+00 4.428259999999999863e+00 5.610719999999999708e+00 1.048789999999999978e+01 3.057789999999999786e+00 9.577099999999999502e-01 1.046289999999999942e+01 1.368679999999999897e+00 7.161889999999999645e+00 9.616469999999999629e+00 2.878100000000000103e-01 2.632870000000000044e+00 1.313780000000000037e+01 2.718560000000000088e+00 9.315120000000000289e+00 1.303120000000000012e+01 2.962040000000000006e+00 5.545759999999999579e+00 1.518459999999999965e+01 -1.020909999999999984e+00 8.198990000000000222e+00 1.308339999999999925e+01 3.454860000000000042e+00 1.418460000000000054e+00 1.562640000000000029e+01 -6.277399999999999647e-01 7.969649999999999679e+00 1.811230000000000118e+01 2.898400000000000087e+00 5.292010000000000325e+00 1.956719999999999970e+01 -7.634000000000000508e-02 3.895659999999999901e+00 1.717229999999999990e+01