-6.579054096999999501e+01
-6.676080353999999772e+01
-6.696542386000000135e+01
-6.857887786000000574e+01
-6.714499884999999324e+01
-6.787826895999999977e+01
-6.737009122999999988e+01
-6.855159992000000102e+01
-6.510359209000000646e+01
-6.823499660999999605e+01
-6.620929031000000009e+01
-6.611089332999999613e+01
-6.438936221000000160e+01
-6.720149913000000197e+01
-6.706529435999999578e+01
-6.535162828999999363e+01
-6.476201224999999795e+01
-6.639694989999999564e+01
-6.531519441000000370e+01
-6.789470633000000532e+01
-6.529664827999999943e+01
-6.697211068999999384e+01
-6.599735916000000202e+01
-6.649838329000000670e+01
-6.696603276999999821e+01
-6.626710545999999624e+01
-6.596113445999999669e+01
-6.475826498000000697e+01
-6.834485770000000571e+01
-6.812674472000000492e+01
-6.783324808999999789e+01
-6.643030339999999967e+01
-6.688644197000000702e+01
-6.614539315999999758e+01
-6.649160917000000381e+01
-6.650404824999999676e+01
-6.606810353000000191e+01
-6.884639534000000083e+01
-6.718314230999999381e+01
-6.625593161999999836e+01
-6.546584866999999974e+01
-6.600308056999999451e+01
-6.703062396999999351e+01
-6.537622718999999449e+01
-6.637337286999999719e+01
-6.786223449999999957e+01
-6.554759131999999511e+01
-6.645082376000000579e+01
-6.613860993999999494e+01
-6.604582071000000099e+01
-6.645563350000000469e+01
-6.705893799000000399e+01
-6.571838354999999865e+01
-6.833014231999999311e+01
-6.666091937000000200e+01
-6.646967739000000108e+01
-6.622436131000000614e+01
-6.489563475999999298e+01
-6.660203248999999914e+01
-6.663260914999999329e+01
-6.666422740000000147e+01
-6.572354298000000483e+01
-6.420614224999999919e+01
-6.620462512999999660e+01
-6.506985808999999676e+01
-6.497862494000000311e+01
-6.445566696999999579e+01
-6.681750499999999704e+01
-6.664109560999999360e+01
-6.586218200000000422e+01
-6.710165790000000641e+01
-6.492418768000000284e+01
-6.554018942999999808e+01
-6.615685430999999994e+01
-6.701020407999999406e+01
-6.599354630999999927e+01
-6.563005427999999597e+01
-6.786725296000000185e+01
-6.538151028000000053e+01
-6.716693372999999667e+01
-6.666332724999999471e+01
-6.751854054999999732e+01
-6.817355698999999447e+01
-6.526816393000000005e+01
-6.644572487000000649e+01
-6.535521472000000642e+01
-6.731836074999999653e+01
-6.448482273000000475e+01
-6.749877555000000484e+01
-6.636183248000000390e+01
-6.587462093999999979e+01
-6.565051981000000580e+01
-6.798583693999999866e+01
-6.624964124000000254e+01
-6.838802522999999667e+01
-6.669253908999999680e+01
-6.534925622000000089e+01
-6.523983126999999627e+01
-6.502013393000000008e+01
-6.508004807000000369e+01
