8.931196056999999300e+00 0.000000000000000000e+00 0.000000000000000000e+00 -4.249619155999999620e+00 7.360556811000000366e+00 0.000000000000000000e+00 0.000000000000000000e+00 0.000000000000000000e+00 2.000000000000000000e+01
8.941395115000000615e+00 0.000000000000000000e+00 0.000000000000000000e+00 -4.199725780999999714e+00 7.274138944999999801e+00 0.000000000000000000e+00 0.000000000000000000e+00 0.000000000000000000e+00 2.000000000000000000e+01
8.283144490999999832e+00 0.000000000000000000e+00 0.000000000000000000e+00 -4.324525180000000191e+00 7.490297860000000085e+00 0.000000000000000000e+00 0.000000000000000000e+00 0.000000000000000000e+00 2.000000000000000000e+01
8.445725774999999658e+00 0.000000000000000000e+00 0.000000000000000000e+00 -4.328258888999999776e+00 7.496764834000000377e+00 0.000000000000000000e+00 0.000000000000000000e+00 0.000000000000000000e+00 2.000000000000000000e+01
8.215928574999999512e+00 0.000000000000000000e+00 0.000000000000000000e+00 -4.424595869000000015e+00 7.663625389999999982e+00 0.000000000000000000e+00 0.000000000000000000e+00 0.000000000000000000e+00 2.000000000000000000e+01
8.919693970000000860e+00 0.000000000000000000e+00 0.000000000000000000e+00 -4.022128415000000068e+00 6.966531262000000169e+00 0.000000000000000000e+00 0.000000000000000000e+00 0.000000000000000000e+00 2.000000000000000000e+01
8.529179724000000462e+00 0.000000000000000000e+00 0.000000000000000000e+00 -4.199760799999999961e+00 7.274199599000000127e+00 0.000000000000000000e+00 0.000000000000000000e+00 0.000000000000000000e+00 2.000000000000000000e+01
8.593553828999999311e+00 0.000000000000000000e+00 0.000000000000000000e+00 -4.418608668000000073e+00 7.653255253000000202e+00 0.000000000000000000e+00 0.000000000000000000e+00 0.000000000000000000e+00 2.000000000000000000e+01
8.646474353000000335e+00 0.000000000000000000e+00 0.000000000000000000e+00 -4.029143862999999826e+00 6.978682374999999993e+00 0.000000000000000000e+00 0.000000000000000000e+00 0.000000000000000000e+00 2.000000000000000000e+01
8.267097281999999936e+00 0.000000000000000000e+00 0.000000000000000000e+00 -4.239187580000000288e+00 7.342488791000000070e+00 0.000000000000000000e+00 0.000000000000000000e+00 0.000000000000000000e+00 2.000000000000000000e+01
8.695755289999999249e+00 0.000000000000000000e+00 0.000000000000000000e+00 -4.342801223999999571e+00 7.521952899000000414e+00 0.000000000000000000e+00 0.000000000000000000e+00 0.000000000000000000e+00 2.000000000000000000e+01
8.777646973999999602e+00 0.000000000000000000e+00 0.000000000000000000e+00 -4.401052048000000383e+00 7.622846293000000273e+00 0.000000000000000000e+00 0.000000000000000000e+00 0.000000000000000000e+00 2.000000000000000000e+01
8.608006264000000129e+00 0.000000000000000000e+00 0.000000000000000000e+00 -4.196178886000000219e+00 7.267995542000000420e+00 0.000000000000000000e+00 0.000000000000000000e+00 0.000000000000000000e+00 2.000000000000000000e+01
8.536874540999999539e+00 0.000000000000000000e+00 0.000000000000000000e+00 -4.334154630999999647e+00 7.506976560000000021e+00 0.000000000000000000e+00 0.000000000000000000e+00 0.000000000000000000e+00 2.000000000000000000e+01
8.056744717000000833e+00 0.000000000000000000e+00 0.000000000000000000e+00 -4.270283635000000189e+00 7.396348740999999727e+00 0.000000000000000000e+00 0.000000000000000000e+00 0.000000000000000000e+00 2.000000000000000000e+01
8.377053231999999738e+00 0.000000000000000000e+00 0.000000000000000000e+00 -4.230615772000000163e+00 7.327641982000000276e+00 0.000000000000000000e+00 0.000000000000000000e+00 0.000000000000000000e+00 2.000000000000000000e+01
8.780584754999999575e+00 0.000000000000000000e+00 0.000000000000000000e+00 -4.167479648999999675e+00 7.218287003000000368e+00 0.000000000000000000e+00 0.000000000000000000e+00 0.000000000000000000e+00 2.000000000000000000e+01
8.165923514999999355e+00 0.000000000000000000e+00 0.000000000000000000e+00 -4.283544625000000217e+00 7.419317451999999591e+00 0.000000000000000000e+00 0.000000000000000000e+00 0.000000000000000000e+00 2.000000000000000000e+01
8.373180421000000706e+00 0.000000000000000000e+00 0.000000000000000000e+00 -4.206448671000000417e+00 7.285783332000000279e+00 0.000000000000000000e+00 0.000000000000000000e+00 0.000000000000000000e+00 2.000000000000000000e+01
8.733761368999999775e+00 0.000000000000000000e+00 0.000000000000000000e+00 -4.260240443999999904e+00 7.378953422999999567e+00 0.000000000000000000e+00 0.000000000000000000e+00 0.000000000000000000e+00 2.000000000000000000e+01
8.680739191000000687e+00 0.000000000000000000e+00 0.000000000000000000e+00 -4.372592365000000036e+00 7.573552671999999930e+00 0.000000000000000000e+00 0.000000000000000000e+00 0.000000000000000000e+00 2.000000000000000000e+01
8.777005402000000345e+00 0.000000000000000000e+00 0.000000000000000000e+00 -4.358918539000000258e+00 7.549868908999999739e+00 0.000000000000000000e+00 0.000000000000000000e+00 0.000000000000000000e+00 2.000000000000000000e+01
8.589376609000000329e+00 0.000000000000000000e+00 0.000000000000000000e+00 -4.358505746999999708e+00 7.549153933000000372e+00 0.000000000000000000e+00 0.000000000000000000e+00 0.000000000000000000e+00 2.000000000000000000e+01
8.468399848000000674e+00 0.000000000000000000e+00 0.000000000000000000e+00 -4.309485246000000380e+00 7.464247926999999727e+00 0.000000000000000000e+00 0.000000000000000000e+00 0.000000000000000000e+00 2.000000000000000000e+01
8.856666402000000105e+00 0.000000000000000000e+00 0.000000000000000000e+00 -4.088962184999999749e+00 7.082290755999999909e+00 0.000000000000000000e+00 0.000000000000000000e+00 0.000000000000000000e+00 2.000000000000000000e+01
8.845622696999999590e+00 0.000000000000000000e+00 0.000000000000000000e+00 -4.145855154000000375e+00 7.180832275000000209e+00 0.000000000000000000e+00 0.000000000000000000e+00 0.000000000000000000e+00 2.000000000000000000e+01
8.738642060000000100e+00 0.000000000000000000e+00 0.000000000000000000e+00 -4.247576004999999988e+00 7.357017970000000240e+00 0.000000000000000000e+00 0.000000000000000000e+00 0.000000000000000000e+00 2.000000000000000000e+01
8.590829766000000589e+00 0.000000000000000000e+00 0.000000000000000000e+00 -4.279025468999999582e+00 7.411490042999999694e+00 0.000000000000000000e+00 0.000000000000000000e+00 0.000000000000000000e+00 2.000000000000000000e+01
7.988964063000000060e+00 0.000000000000000000e+00 0.000000000000000000e+00 -4.181167461000000252e+00 7.241994989000000160e+00 0.000000000000000000e+00 0.000000000000000000e+00 0.000000000000000000e+00 2.000000000000000000e+01
9.011871413999999803e+00 0.000000000000000000e+00 0.000000000000000000e+00 -4.158969205000000002e+00 7.203546479999999974e+00 0.000000000000000000e+00 0.000000000000000000e+00 0.000000000000000000e+00 2.000000000000000000e+01
8.538297189999999759e+00 0.000000000000000000e+00 0.000000000000000000e+00 -4.214336057999999774e+00 7.299444689000000430e+00 0.000000000000000000e+00 0.000000000000000000e+00 0.000000000000000000e+00 2.000000000000000000e+01
8.490466873000000803e+00 0.000000000000000000e+00 0.000000000000000000e+00 -4.313780520999999979e+00 7.471687561999999616e+00 0.000000000000000000e+00 0.000000000000000000e+00 0.000000000000000000e+00 2.000000000000000000e+01
8.350767401000000589e+00 0.000000000000000000e+00 0.000000000000000000e+00 -4.281716162999999575e+00 7.416150462000000054e+00 0.000000000000000000e+00 0.000000000000000000e+00 0.000000000000000000e+00 2.000000000000000000e+01
8.244570203000000319e+00 0.000000000000000000e+00 0.000000000000000000e+00 -4.041567947999999966e+00 7.000201522000000232e+00 0.000000000000000000e+00 0.000000000000000000e+00 0.000000000000000000e+00 2.000000000000000000e+01
8.585897637000000415e+00 0.000000000000000000e+00 0.000000000000000000e+00 -4.267830414999999711e+00 7.392099639999999638e+00 0.000000000000000000e+00 0.000000000000000000e+00 0.000000000000000000e+00 2.000000000000000000e+01
8.690264168000000566e+00 0.000000000000000000e+00 0.000000000000000000e+00 -4.221070638999999680e+00 7.311109325000000325e+00 0.000000000000000000e+00 0.000000000000000000e+00 0.000000000000000000e+00 2.000000000000000000e+01
8.250205146000000767e+00 0.000000000000000000e+00 0.000000000000000000e+00 -4.365017309999999817e+00 7.560432290999999694e+00 0.000000000000000000e+00 0.000000000000000000e+00 0.000000000000000000e+00 2.000000000000000000e+01
8.682303798999999600e+00 0.000000000000000000e+00 0.000000000000000000e+00 -4.149190809000000257e+00 7.186609799000000187e+00 0.000000000000000000e+00 0.000000000000000000e+00 0.000000000000000000e+00 2.000000000000000000e+01
8.399559954000000772e+00 0.000000000000000000e+00 0.000000000000000000e+00 -4.338368178999999714e+00 7.514274640000000005e+00 0.000000000000000000e+00 0.000000000000000000e+00 0.000000000000000000e+00 2.000000000000000000e+01
8.871082616000000698e+00 0.000000000000000000e+00 0.000000000000000000e+00 -4.337094137000000238e+00 7.512067934000000058e+00 0.000000000000000000e+00 0.000000000000000000e+00 0.000000000000000000e+00 2.000000000000000000e+01
8.634252732000000208e+00 0.000000000000000000e+00 0.000000000000000000e+00 -4.137482649999999929e+00 7.166330671999999957e+00 0.000000000000000000e+00 0.000000000000000000e+00 0.000000000000000000e+00 2.000000000000000000e+01
8.923362473999999267e+00 0.000000000000000000e+00 0.000000000000000000e+00 -4.127792254000000050e+00 7.149546412000000295e+00 0.000000000000000000e+00 0.000000000000000000e+00 0.000000000000000000e+00 2.000000000000000000e+01
8.229308593000000727e+00 0.000000000000000000e+00 0.000000000000000000e+00 -4.111992467000000318e+00 7.122180377000000284e+00 0.000000000000000000e+00 0.000000000000000000e+00 0.000000000000000000e+00 2.000000000000000000e+01
8.584622315000000725e+00 0.000000000000000000e+00 0.000000000000000000e+00 -4.287038017999999617e+00 7.425368186000000037e+00 0.000000000000000000e+00 0.000000000000000000e+00 0.000000000000000000e+00 2.000000000000000000e+01
8.210354490000000283e+00 0.000000000000000000e+00 0.000000000000000000e+00 -4.352416491999999693e+00 7.538607032999999902e+00 0.000000000000000000e+00 0.000000000000000000e+00 0.000000000000000000e+00 2.000000000000000000e+01
8.515843758999999125e+00 0.000000000000000000e+00 0.000000000000000000e+00 -4.344996458999999867e+00 7.525755157999999945e+00 0.000000000000000000e+00 0.000000000000000000e+00 0.000000000000000000e+00 2.000000000000000000e+01
8.144419490000000650e+00 0.000000000000000000e+00 0.000000000000000000e+00 -4.306825092999999605e+00 7.459640407000000195e+00 0.000000000000000000e+00 0.000000000000000000e+00 0.000000000000000000e+00 2.000000000000000000e+01
8.475004910999999197e+00 0.000000000000000000e+00 0.000000000000000000e+00 -4.202117456999999945e+00 7.278281448999999625e+00 0.000000000000000000e+00 0.000000000000000000e+00 0.000000000000000000e+00 2.000000000000000000e+01
8.444130961000000823e+00 0.000000000000000000e+00 0.000000000000000000e+00 -4.076179196000000005e+00 7.060149968000000165e+00 0.000000000000000000e+00 0.000000000000000000e+00 0.000000000000000000e+00 2.000000000000000000e+01
8.196008381000000398e+00 0.000000000000000000e+00 0.000000000000000000e+00 -4.323489462999999589e+00 7.488503944999999717e+00 0.000000000000000000e+00 0.000000000000000000e+00 0.000000000000000000e+00 2.000000000000000000e+01
8.318556028999999796e+00 0.000000000000000000e+00 0.000000000000000000e+00 -4.389737857000000076e+00 7.603249536999999947e+00 0.000000000000000000e+00 0.000000000000000000e+00 0.000000000000000000e+00 2.000000000000000000e+01
9.014750437000000005e+00 0.000000000000000000e+00 0.000000000000000000e+00 -4.301462460999999848e+00 7.450352054999999751e+00 0.000000000000000000e+00 0.000000000000000000e+00 0.000000000000000000e+00 2.000000000000000000e+01
8.317103698000000378e+00 0.000000000000000000e+00 0.000000000000000000e+00 -4.406400738000000317e+00 7.632110496000000133e+00 0.000000000000000000e+00 0.000000000000000000e+00 0.000000000000000000e+00 2.000000000000000000e+01
8.032842722999999907e+00 0.000000000000000000e+00 0.000000000000000000e+00 -4.244245066000000399e+00 7.351248613000000098e+00 0.000000000000000000e+00 0.000000000000000000e+00 0.000000000000000000e+00 2.000000000000000000e+01
8.342857280000000486e+00 0.000000000000000000e+00 0.000000000000000000e+00 -4.277505745000000026e+00 7.408857803000000075e+00 0.000000000000000000e+00 0.000000000000000000e+00 0.000000000000000000e+00 2.000000000000000000e+01
8.673040043000000310e+00 0.000000000000000000e+00 0.000000000000000000e+00 -4.288131866999999708e+00 7.427262788000000171e+00 0.000000000000000000e+00 0.000000000000000000e+00 0.000000000000000000e+00 2.000000000000000000e+01
8.145837397999999396e+00 0.000000000000000000e+00 0.000000000000000000e+00 -4.212275240000000309e+00 7.295875246999999675e+00 0.000000000000000000e+00 0.000000000000000000e+00 0.000000000000000000e+00 2.000000000000000000e+01
8.690865796000000643e+00 0.000000000000000000e+00 0.000000000000000000e+00 -4.361905462000000178e+00 7.555042411999999707e+00 0.000000000000000000e+00 0.000000000000000000e+00 0.000000000000000000e+00 2.000000000000000000e+01
8.587289674999999178e+00 0.000000000000000000e+00 0.000000000000000000e+00 -4.324027711000000274e+00 7.489436217999999812e+00 0.000000000000000000e+00 0.000000000000000000e+00 0.000000000000000000e+00 2.000000000000000000e+01
8.166825581999999528e+00 0.000000000000000000e+00 0.000000000000000000e+00 -4.350385939999999785e+00 7.535090012999999587e+00 0.000000000000000000e+00 0.000000000000000000e+00 0.000000000000000000e+00 2.000000000000000000e+01
8.441604416000000555e+00 0.000000000000000000e+00 0.000000000000000000e+00 -4.260082476000000007e+00 7.378679814999999920e+00 0.000000000000000000e+00 0.000000000000000000e+00 0.000000000000000000e+00 2.000000000000000000e+01
8.205590080000000341e+00 0.000000000000000000e+00 0.000000000000000000e+00 -4.322829556000000295e+00 7.487360952000000403e+00 0.000000000000000000e+00 0.000000000000000000e+00 0.000000000000000000e+00 2.000000000000000000e+01
8.196162507000000375e+00 0.000000000000000000e+00 0.000000000000000000e+00 -4.386463768999999679e+00 7.597578651000000072e+00 0.000000000000000000e+00 0.000000000000000000e+00 0.000000000000000000e+00 2.000000000000000000e+01
8.567702727000000351e+00 0.000000000000000000e+00 0.000000000000000000e+00 -4.021662497000000336e+00 6.965724267999999775e+00 0.000000000000000000e+00 0.000000000000000000e+00 0.000000000000000000e+00 2.000000000000000000e+01
8.422384780999999876e+00 0.000000000000000000e+00 0.000000000000000000e+00 -4.077241550000000103e+00 7.061990018999999563e+00 0.000000000000000000e+00 0.000000000000000000e+00 0.000000000000000000e+00 2.000000000000000000e+01
8.340379519000000741e+00 0.000000000000000000e+00 0.000000000000000000e+00 -4.283440941000000279e+00 7.419137864999999721e+00 0.000000000000000000e+00 0.000000000000000000e+00 0.000000000000000000e+00 2.000000000000000000e+01
8.523601833000000738e+00 0.000000000000000000e+00 0.000000000000000000e+00 -4.320583498999999605e+00 7.483470666999999743e+00 0.000000000000000000e+00 0.000000000000000000e+00 0.000000000000000000e+00 2.000000000000000000e+01
8.777482214000000837e+00 0.000000000000000000e+00 0.000000000000000000e+00 -4.172284860000000428e+00 7.226609873000000128e+00 0.000000000000000000e+00 0.000000000000000000e+00 0.000000000000000000e+00 2.000000000000000000e+01
8.403183814000000140e+00 0.000000000000000000e+00 0.000000000000000000e+00 -4.393739985999999931e+00 7.610181427999999748e+00 0.000000000000000000e+00 0.000000000000000000e+00 0.000000000000000000e+00 2.000000000000000000e+01
8.148849308000000846e+00 0.000000000000000000e+00 0.000000000000000000e+00 -4.211463369999999706e+00 7.294469046999999762e+00 0.000000000000000000e+00 0.000000000000000000e+00 0.000000000000000000e+00 2.000000000000000000e+01
8.541644635000000818e+00 0.000000000000000000e+00 0.000000000000000000e+00 -4.182345396999999743e+00 7.244035234000000045e+00 0.000000000000000000e+00 0.000000000000000000e+00 0.000000000000000000e+00 2.000000000000000000e+01
8.227208566999999917e+00 0.000000000000000000e+00 0.000000000000000000e+00 -4.401848152000000347e+00 7.624225185000000238e+00 0.000000000000000000e+00 0.000000000000000000e+00 0.000000000000000000e+00 2.000000000000000000e+01
8.589635211999999242e+00 0.000000000000000000e+00 0.000000000000000000e+00 -4.137076826000000374e+00 7.165627763999999900e+00 0.000000000000000000e+00 0.000000000000000000e+00 0.000000000000000000e+00 2.000000000000000000e+01
8.454554999000000848e+00 0.000000000000000000e+00 0.000000000000000000e+00 -4.297512747999999938e+00 7.443510951000000375e+00 0.000000000000000000e+00 0.000000000000000000e+00 0.000000000000000000e+00 2.000000000000000000e+01
8.349992810999999904e+00 0.000000000000000000e+00 0.000000000000000000e+00 -4.355616149000000270e+00 7.544149001000000077e+00 0.000000000000000000e+00 0.000000000000000000e+00 0.000000000000000000e+00 2.000000000000000000e+01
8.792347658000000621e+00 0.000000000000000000e+00 0.000000000000000000e+00 -4.231597339000000346e+00 7.329342106000000356e+00 0.000000000000000000e+00 0.000000000000000000e+00 0.000000000000000000e+00 2.000000000000000000e+01
9.016651416000000197e+00 0.000000000000000000e+00 0.000000000000000000e+00 -4.312743412999999748e+00 7.469891239999999932e+00 0.000000000000000000e+00 0.000000000000000000e+00 0.000000000000000000e+00 2.000000000000000000e+01
8.796129870999999767e+00 0.000000000000000000e+00 0.000000000000000000e+00 -4.251281135000000155e+00 7.363435443000000191e+00 0.000000000000000000e+00 0.000000000000000000e+00 0.000000000000000000e+00 2.000000000000000000e+01
8.438040306999999629e+00 0.000000000000000000e+00 0.000000000000000000e+00 -4.091007495000000382e+00 7.085833337000000398e+00 0.000000000000000000e+00 0.000000000000000000e+00 0.000000000000000000e+00 2.000000000000000000e+01
