-6.877949778999999353e+01
-6.800313963000000683e+01
-6.907903878999999847e+01
-6.858241674999999304e+01
-6.943987203000000363e+01
-6.914561958000000175e+01
-6.951974715999999432e+01
-6.931588591999999949e+01
-6.998613199999999779e+01
-6.921433625000000234e+01
-6.900919349000000125e+01
-7.023425287999999966e+01
-6.975205463999999722e+01
-6.931671054000000254e+01
-6.909597372999999720e+01
-6.889565591000000211e+01
-6.974903906999999492e+01
-6.950696238000000449e+01
-6.908529377000000693e+01
-6.990532315000000096e+01
-6.974037196999999821e+01
-7.027709620999999629e+01
-6.904811379999999588e+01
-7.021560832000000119e+01
-6.959957647999999608e+01
-6.783363574000000540e+01
-6.807570013999999503e+01
-6.936158985999999516e+01
-6.942495795000000669e+01
-7.016126384999999743e+01
-6.935407911999999442e+01
-6.974554797999999778e+01
-6.943316188999999383e+01
-6.666585104000000683e+01
-6.948381786999999576e+01
-6.786332127999999386e+01
-6.906333643000000677e+01
-6.804840581000000554e+01
-6.937370885999999359e+01
-6.940681569000000195e+01
-6.975930090999999322e+01
-6.952762198000000637e+01
-7.003386021999999400e+01
-6.937244477999999503e+01
-6.883805438999999637e+01
-6.897646752999999364e+01
-6.908555133000000126e+01
-6.904490085999999849e+01
-6.958758577000000400e+01
-6.975599549000000366e+01
-6.808028994000000012e+01
-6.928902906999999800e+01
-6.691800492000000133e+01
-6.980890485000000467e+01
-6.892571229000000699e+01
-6.948472884000000249e+01
-6.951821280999999431e+01
-6.929310952999999529e+01
-6.922787003000000539e+01
-6.965267307999999957e+01
-6.937656076999999755e+01
-6.987965029000000072e+01
-6.996447057999999686e+01
-6.928210138000000029e+01
-6.960741969999999412e+01
-6.887737506999999937e+01
-6.974541232999999352e+01
-6.986273762000000431e+01
-6.946819107000000315e+01
-6.952931214999999554e+01
-6.927527639999999565e+01
-6.936956499999999437e+01
-6.981919917000000453e+01
-6.989522318999999584e+01
-6.930718575000000214e+01
-6.924659449000000677e+01
-6.949160781000000497e+01
-6.891919964000000220e+01
-6.788989196999999365e+01
-7.010178983999999502e+01
-6.929801224999999931e+01
-6.979170080000000098e+01
-6.906682945000000018e+01
-6.917654294999999820e+01
-6.946191367999999500e+01
-6.918534633000000156e+01
-6.803143269000000259e+01
-6.908372011000000157e+01
-6.768868625999999722e+01
-6.799365172000000257e+01
-6.936741458000000193e+01
-6.919404362000000219e+01
-6.833476441000000534e+01
-6.918222077000000070e+01
-6.896920699999999727e+01
-6.941910298999999895e+01
-6.936711275000000398e+01
-6.955061833999999976e+01
-6.955214669999999444e+01
-6.770014956999999356e+01
