-2.753369999999999984e-01 2.272780000000000078e-01 -2.566600000000000131e-02 1.404070000000000040e-01 -1.533380000000000021e-01 -4.684929999999999928e-01 5.473999999999999699e-02 -7.648699999999999943e-02 -2.511689999999999756e-01 -6.330299999999999816e-01 -5.185499999999999832e-02 7.206999999999999518e-02 -8.107499999999999429e-02 -2.326670000000000127e-01 -3.212180000000000035e-01 -5.426400000000000112e-01 6.352929999999999966e-01 -2.938370000000000148e-01 -1.732470000000000121e-01 4.717080000000000162e-01 -7.772959999999999869e-01 1.243975999999999971e+00 2.136399999999999966e-01 -1.080099999999999984e-02 6.757799999999999918e-02 -2.499830000000000108e-01 1.003150000000000014e-01 4.455919999999999881e-01 4.670079999999999787e-01 2.394599999999999854e-02 3.975969999999999782e-01 -3.614620000000000055e-01 2.747809999999999975e-01 -2.572769999999999779e-01 3.263800000000000034e-01 4.356630000000000225e-01 5.967649999999999899e-01 1.963419999999999888e-01 -2.748329999999999940e-01 9.558700000000000530e-02 -5.861469999999999736e-01 1.943200000000000136e-02 -1.821470000000000034e-01 -3.030309999999999948e-01 5.682380000000000209e-01 7.646300000000000319e-02 2.353609999999999869e-01 4.694309999999999872e-01 7.129269999999999774e-01 -2.386610000000000120e-01 -9.215200000000000058e-01 -3.327919999999999767e-01 -3.044330000000000092e-01 3.297320000000000251e-01 -2.447819999999999996e-01 2.754940000000000166e-01 5.043969999999999843e-01 -1.109305999999999903e+00 -4.904359999999999831e-01 5.468279999999999808e-01
9.112270000000000092e-01 6.380930000000000213e-01 8.450929999999999831e-01 -3.766789999999999861e-01 1.921219999999999872e-01 -3.206249999999999933e-01 3.605000000000000131e-03 7.651879999999999793e-01 8.108589999999999964e-01 5.865470000000000406e-01 1.009059999999999957e-01 4.488700000000000329e-02 -3.810660000000000158e-01 -3.913300000000000112e-01 8.514019999999999921e-01 2.574250000000000149e-01 -4.807230000000000114e-01 -1.158150000000000013e-01 -1.366900000000000059e-01 2.598480000000000234e-01 -6.303999999999999881e-02 9.635080000000000311e-01 4.202480000000000104e-01 7.298989999999999645e-01 -6.719840000000000257e-01 -5.243020000000000458e-01 -7.634900000000000020e-01 5.579969999999999652e-01 -2.991600000000000162e-02 -3.627500000000000169e-02 -2.786509999999999820e-01 -5.239599999999999813e-01 -1.185810000000000058e-01 -2.805830000000000268e-01 -3.840700000000000225e-01 1.075899999999999947e-02 5.402670000000000528e-01 5.483339999999999881e-01 -1.069900999999999991e+00 -3.310069999999999957e-01 2.834430000000000005e-01 -7.203220000000000178e-01 -5.020069999999999810e-01 4.463199999999999806e-02 -7.756800000000000361e-01 -8.718789999999999596e-01 -2.368369999999999920e-01 -2.213299999999999990e-02 -2.228499999999999925e-02 -9.337600000000000344e-01 -7.214129999999999709e-01 8.059999999999999457e-03 -3.520600000000000118e-02 1.184768999999999961e+00 3.210489999999999733e-01 -4.984390000000000209e-01 4.286739999999999995e-01 -2.968569999999999820e-01 7.857290000000000108e-01 -1.790680000000000049e-01
-1.132924999999999960e+00 2.996920000000000139e-01 6.868539999999999646e-01 -1.263180000000000136e-01 -4.961630000000000207e-01 1.567676000000000069e+00 3.745939999999999825e-01 5.843990000000000018e-01 -1.977059999999999929e-01 1.052292999999999923e+00 -8.369079999999999853e-01 1.349053999999999975e+00 -1.505640000000000034e-01 -8.683149999999999480e-01 -5.462500000000000133e-01 -8.210399999999999643e-02 -5.330009999999999470e-01 -5.426640000000000352e-01 -3.862940000000000262e-01 7.943649999999999878e-01 -4.649360000000000159e-01 -5.393499999999999683e-02 -6.685649999999999649e-01 1.812010000000000010e-01 -2.955789999999999806e-01 1.871423000000000059e+00 -5.374809999999999865e-01 -4.523610000000000131e-01 -6.003119999999999568e-01 -4.626689999999999969e-01 1.471937000000000051e+00 -3.643589999999999884e-01 -1.274213999999999958e+00 -1.034664000000000028e+00 -2.273370000000000113e-01 -5.571629999999999638e-01 1.597550000000000081e-01 -4.833699999999999802e-02 -8.456299999999999928e-02 4.335439999999999849e-01 1.051218999999999903e+00 -7.056219999999999715e-01 -5.143600000000000255e-02 -3.316509999999999736e-01 -1.294109999999999983e-01 -2.068349999999999911e-01 7.914959999999999773e-01 1.082759000000000027e+00 1.019999999999999934e-01 -2.599429999999999796e-01 3.761229999999999851e-01 -5.611900000000000222e-02 1.121496000000000048e+00 -2.487599999999999881e-02 6.507990000000000164e-01 -1.084433999999999898e+00 -1.277000000000000010e-02 -2.157870000000000066e-01 -1.947659999999999947e-01 2.966579999999999773e-01
3.892349999999999977e-01 -3.995619999999999727e-01 -6.849929999999999630e-01 4.336829999999999852e-01 5.961140000000000327e-01 -3.134850000000000136e-01 -8.416829999999999590e-01 4.022240000000000260e-01 3.844020000000000215e-01 8.912989999999999524e-01 -3.820899999999999991e-02 5.086509999999999643e-01 -7.638160000000000505e-01 8.256000000000000005e-01 2.701709999999999945e-01 2.044710000000000139e-01 -1.105504000000000042e+00 -1.162559999999999982e-01 4.016580000000000150e-01 -4.506160000000000165e-01 -7.402400000000000091e-01 -5.567490000000000494e-01 -8.812090000000000201e-01 7.425370000000000026e-01 1.323307999999999929e+00 -6.775809999999999889e-01 -8.136799999999999589e-01 -3.611700000000000327e-02 -4.174149999999999805e-01 -3.293110000000000204e-01 -8.510760000000000547e-01 2.205259999999999998e-01 -2.614330000000000265e-01 -7.669219999999999926e-01 5.579300000000000231e-02 3.798659999999999815e-01 -2.633070000000000133e-01 8.625639999999999974e-01 -1.988920000000000132e-01 -2.190130000000000132e-01 2.347529999999999895e-01 2.517650000000000166e-01 -1.232649999999999996e-01 1.525880000000000014e-01 2.511329999999999951e-01 6.531339999999999923e-01 -2.343250000000000055e-01 -7.725480000000000125e-01 -1.011790000000000050e-01 -1.966350000000000042e-01 2.273129999999999873e-01 7.630230000000000068e-01 6.840829999999999966e-01 9.332209999999999672e-01 -2.649099999999999788e-01 -2.435190000000000132e-01 7.370029999999999637e-01 -2.717740000000000156e-01 6.103319999999999856e-01 -4.552249999999999908e-01
-2.489379999999999926e-01 3.724049999999999860e-01 2.909459999999999824e-01 -6.493750000000000355e-01 4.514300000000000257e-02 2.550180000000000224e-01 -8.694000000000000339e-02 5.762930000000000552e-01 6.712879999999999958e-01 1.466000000000000081e-01 -7.986360000000000126e-01 -3.148839999999999972e-01 9.380439999999999889e-01 1.908340000000000036e-01 -8.574709999999999832e-01 -4.923319999999999919e-01 -1.337899999999999923e-01 1.378886000000000056e+00 6.972319999999999629e-01 -6.158930000000000238e-01 -9.301340000000000163e-01 -7.455570000000000253e-01 -4.137020000000000142e-01 8.357029999999999736e-01 3.569049999999999723e-01 -3.425659999999999816e-01 -2.445730000000000126e-01 6.151199999999999724e-02 3.137800000000000034e-01 2.290530000000000066e-01 5.941300000000000053e-02 -1.856569999999999887e-01 -2.189129999999999965e-01 5.675109999999999877e-01 2.348179999999999990e-01 4.596660000000000190e-01 -6.575400000000000689e-02 3.820430000000000215e-01 -3.984779999999999989e-01 -7.235700000000000465e-02 -6.895799999999999708e-01 -9.022719999999999629e-01 8.600999999999999271e-03 3.616360000000000130e-01 -9.534310000000000285e-01 1.024720999999999993e+00 6.263980000000000103e-01 -1.278853000000000018e+00 -1.349515999999999938e+00 -6.593299999999999716e-01 1.014200999999999908e+00 -9.031510000000000371e-01 -1.726600000000000010e-02 3.851010000000000266e-01 -2.513000000000000043e-03 1.001560000000000006e+00 -1.699799999999999922e-02 7.558939999999999548e-01 -2.484899999999999887e-01 5.961450000000000360e-01
-3.601509999999999989e-01 3.167800000000000060e-01 2.127920000000000089e-01 5.858480000000000354e-01 -4.120639999999999858e-01 1.564359999999999917e-01 -4.890909999999999980e-01 -3.045240000000000169e-01 -4.192409999999999748e-01 -1.867550000000000043e-01 -1.043970000000000037e-01 -6.687619999999999676e-01 -4.690099999999999825e-02 -7.114740000000000508e-01 -2.450565000000000104e+00 2.778800000000000159e-01 2.804659999999999931e-01 -4.253870000000000151e-01 -5.781849999999999490e-01 8.000389999999999446e-01 -9.391239999999999588e-01 -1.356549999999999978e-01 -9.326590000000000158e-01 -9.709299999999999875e-02 -5.623800000000000326e-02 1.520040000000000002e-01 6.470740000000000380e-01 3.006019999999999803e-01 -1.067519999999999997e-01 3.606550000000000034e-01 4.907639999999999780e-01 9.923929999999999696e-01 -5.703040000000000331e-01 2.551700000000000149e-02 -2.845449999999999924e-01 3.883820000000000050e-01 5.112100000000000533e-01 -4.056799999999999851e-01 -2.428990000000000038e-01 -3.232789999999999830e-01 8.409520000000000328e-01 6.596819999999999906e-01 -2.676450000000000218e-01 4.226699999999999902e-02 1.285469999999999946e-01 -4.330490000000000173e-01 -4.570089999999999986e-01 -1.356300000000000006e-01 2.666729999999999934e-01 1.887689999999999924e-01 2.466131999999999991e+00 -3.486690000000000067e-01 1.056723000000000079e+00 -2.217270000000000074e-01 -2.917499999999999954e-02 -7.693159999999999998e-01 1.870799999999999963e-01 7.962979999999999503e-01 -1.819709999999999939e-01 9.639510000000000023e-01
4.440560000000000063e-01 -1.266019999999999923e-01 -8.093300000000000494e-02 -5.285279999999999978e-01 3.949810000000000265e-01 1.321060000000000012e-01 -2.576320000000000277e-01 4.678479999999999861e-01 -4.919120000000000159e-01 1.107437000000000005e+00 3.666599999999999721e-02 4.166940000000000088e-01 -1.238270000000000065e-01 -3.579700000000000104e-01 1.190569999999999962e-01 -1.132539999999999936e-01 3.179710000000000036e-01 4.913100000000000106e-02 2.882589999999999875e-01 -4.076989999999999781e-01 -6.553719999999999546e-01 -3.851930000000000076e-01 -3.248039999999999816e-01 -7.848659999999999526e-01 -9.433610000000000051e-01 5.097610000000000197e-01 -1.258430000000000104e-01 -7.671540000000000026e-01 -1.523711000000000038e+00 3.549700000000000077e-02 4.694570000000000132e-01 6.754900000000000349e-01 1.516699999999999993e-02 5.155799999999999966e-02 1.258670000000000067e-01 5.643650000000000055e-01 1.826939999999999953e-01 -4.118519999999999959e-01 -3.472750000000000004e-01 1.204000000000000035e-02 -3.363840000000000163e-01 -3.960779999999999856e-01 4.025029999999999997e-01 -2.716800000000000118e-02 1.085139999999999993e-01 1.008519999999999972e-01 5.461540000000000283e-01 -1.419960000000000111e-01 2.433799999999999852e-02 1.552640000000000131e-01 2.002359999999999973e-01 7.341699999999999615e-02 -5.602270000000000305e-01 1.578529999999999933e-01 5.085990000000000233e-01 3.831660000000000066e-01 6.804879999999999818e-01 -5.462599999999999678e-01 4.632490000000000219e-01 5.451650000000000107e-01
1.046561999999999992e+00 4.809050000000000269e-01 4.189869999999999983e-01 9.846629999999999550e-01 2.586040000000000005e-01 4.889999999999999902e-01 1.010175999999999963e+00 3.114379999999999926e-01 -5.157159999999999522e-01 9.971700000000000008e-02 4.397880000000000122e-01 -1.248547999999999991e+00 1.902159999999999962e-01 2.257649999999999935e-01 6.708479999999999999e-01 -6.768000000000000405e-02 -5.352799999999999919e-02 1.705840000000000134e-01 -4.116719999999999824e-01 -6.627300000000000413e-01 -4.084309999999999885e-01 -6.468850000000000433e-01 3.955299999999999788e-02 -3.058969999999999745e-01 -5.031619999999999981e-01 -4.853469999999999729e-01 5.179899999999999505e-01 -1.089612000000000025e+00 -8.300239999999999840e-01 2.574489999999999834e-01 -1.205621999999999971e+00 4.430950000000000166e-01 -4.738089999999999802e-01 2.308630000000000126e-01 -6.693810000000000038e-01 5.198869999999999880e-01 -8.115109999999999824e-01 2.317120000000000013e-01 -1.111240000000000006e+00 2.193189999999999862e-01 -8.206560000000000521e-01 -9.233199999999999741e-02 5.031219999999999581e-01 -4.562499999999999889e-02 7.334159999999999568e-01 -2.999910000000000077e-01 6.262349999999999861e-01 2.391119999999999912e-01 -1.574260000000000104e-01 2.336169999999999913e-01 -4.525540000000000118e-01 6.714689999999999825e-01 -2.919950000000000045e-01 -4.835220000000000073e-01 2.635489999999999777e-01 7.268850000000000033e-01 7.981489999999999974e-01 -2.609500000000000014e-02 -1.583120000000000083e-01 2.766270000000000118e-01
-1.016302999999999956e+00 8.370300000000000518e-01 4.380350000000000077e-01 2.009350000000000025e-01 1.482940000000000091e-01 2.886299999999999977e-02 -5.227300000000000002e-02 5.951100000000000140e-02 3.240899999999999892e-01 -7.246899999999999453e-01 2.546160000000000090e-01 1.032789999999999958e-01 4.697040000000000104e-01 4.878299999999999997e-02 -8.551309999999999745e-01 -5.279420000000000224e-01 -5.200479999999999547e-01 -1.508639999999999981e-01 6.761089999999999600e-01 -5.726620000000000044e-01 2.172860000000000069e-01 3.164139999999999731e-01 5.581739999999999480e-01 4.896199999999999858e-02 2.903629999999999822e-01 -3.070450000000000124e-01 -2.562590000000000146e-01 -2.103100000000000108e-02 -2.331880000000000064e-01 3.242369999999999974e-01 6.061229999999999674e-01 -4.173160000000000203e-01 3.958600000000000313e-02 4.035219999999999918e-01 -4.118930000000000091e-01 2.214830000000000132e-01 6.262600000000000111e-02 -2.529299999999999882e-01 -5.523620000000000196e-01 -1.933900000000000063e-01 -4.096239999999999881e-01 -4.384569999999999856e-01 8.795799999999999452e-02 9.400100000000000122e-02 -3.266310000000000047e-01 2.599549999999999916e-01 9.814129999999999798e-01 2.147479999999999944e-01 -1.061269999999999991e-01 -5.375969999999999915e-01 7.878089999999999815e-01 -7.442760000000000487e-01 -4.394069999999999920e-01 -5.298810000000000464e-01 4.680600000000000038e-02 9.817900000000000515e-01 3.149390000000000245e-01 -3.448299999999999976e-02 1.380989999999999995e-01 4.626899999999999763e-02
5.946679999999999744e-01 2.852629999999999888e-01 -1.417760000000000131e-01 1.198431000000000024e+00 1.471689999999999943e-01 -2.942299999999999915e-01 -1.026772000000000018e+00 -1.481490000000000029e-01 -6.605509999999999993e-01 -1.515700000000000103e-01 2.655429999999999735e-01 -7.891679999999999806e-01 -4.102029999999999843e-01 9.562869999999999981e-01 -8.168009999999999993e-01 -6.528199999999999559e-01 -5.431169999999999609e-01 3.270239999999999814e-01 -6.454839999999999467e-01 3.464450000000000029e-01 -1.970698000000000061e+00 -1.400168000000000079e+00 -4.214849999999999985e-01 -5.672239999999999505e-01 9.231099999999999861e-01 2.918330000000000091e-01 8.159739999999999771e-01 -4.726560000000000206e-01 -2.380079999999999973e-01 1.182028000000000079e+00 -1.517249999999999988e-01 -4.422909999999999897e-01 5.031679999999999486e-01 2.942279999999999895e-01 2.474949999999999928e-01 -3.637719999999999843e-01 -1.131898000000000071e+00 -8.855899999999999883e-02 -7.706880000000000397e-01 -1.189100000000000018e-01 -1.343409999999999882e-01 4.854800000000000088e-02 2.803269999999999929e-01 3.030109999999999748e-01 1.188083999999999918e+00 3.732759999999999967e-01 -2.310290000000000121e-01 -4.828049999999999842e-01 -1.308330000000000048e-01 -2.801750000000000074e-01 3.335469999999999824e-01 1.402879999999999960e-01 1.432009999999999950e-01 -1.577100000000000030e-02 1.567163000000000084e+00 -9.498990000000000489e-01 1.293258000000000019e+00 9.215489999999999515e-01 4.908060000000000200e-01 1.181850999999999985e+00
-1.117555999999999994e+00 6.490590000000000526e-01 -5.830830000000000179e-01 1.978810000000000013e-01 3.618999999999999995e-01 -1.754350000000000076e-01 3.350090000000000012e-01 3.096309999999999896e-01 8.154649999999999954e-01 -5.652080000000000437e-01 -7.957699999999999496e-02 -9.648050000000000237e-01 -9.647799999999999432e-02 8.331659999999999622e-01 -2.623880000000000101e-01 -2.928979999999999917e-01 -4.462769999999999793e-01 2.798220000000000152e-01 7.948849999999999527e-01 5.968120000000000092e-01 -5.147639999999999993e-01 1.093653999999999904e+00 5.127329999999999943e-01 6.837659999999999849e-01 -2.537249999999999783e-01 2.400780000000000136e-01 -1.491929999999999923e-01 1.495209999999999873e-01 -6.981680000000000108e-01 6.653040000000000065e-01 8.252930000000000543e-01 -5.579680000000000195e-01 -3.573999999999999955e-01 3.559769999999999879e-01 -1.229350000000000026e-01 6.524600000000000399e-01 -4.422429999999999972e-01 2.901920000000000055e-01 9.322770000000000223e-01 -3.735600000000000032e-02 -7.787389999999999590e-01 -4.073049999999999726e-01 4.464620000000000255e-01 -6.257519999999999749e-01 -6.603580000000000005e-01 4.642999999999999905e-02 3.125060000000000060e-01 1.438749999999999973e+00 8.229000000000000203e-03 2.340839999999999865e-01 -3.770870000000000055e-01 -8.495289999999999786e-01 -5.393959999999999866e-01 -3.276220000000000243e-01 8.527600000000000458e-02 5.957360000000000433e-01 -6.307920000000000194e-01 -6.836280000000000134e-01 -1.087085000000000079e+00 -5.761199999999999655e-02
-8.740649999999999809e-01 -1.250189999999999912e-01 8.423699999999999521e-01 -6.360919999999999908e-01 -2.145720000000000127e-01 9.152759999999999785e-01 -3.569979999999999820e-01 4.335899999999999754e-01 2.951179999999999914e-01 1.759819999999999995e-01 -1.475859999999999950e-01 4.122609999999999886e-01 3.874299999999999966e-02 4.936090000000000200e-01 -2.805719999999999881e-01 8.114499999999999491e-02 5.775799999999999684e-02 3.538899999999999685e-02 -1.413106999999999891e+00 2.617809999999999859e-01 4.558590000000000142e-01 -3.024339999999999806e-01 -4.840289999999999870e-01 -2.782140000000000168e-01 -1.935769999999999991e-01 -2.445710000000000106e-01 2.773999999999999990e-03 3.728779999999999872e-01 1.328400000000000136e-01 4.575440000000000063e-01 8.364960000000000173e-01 -3.429610000000000158e-01 -7.250330000000000386e-01 3.375600000000000267e-01 8.003090000000000481e-01 -6.029569999999999652e-01 -2.257540000000000102e-01 -8.798000000000000265e-02 4.786619999999999764e-01 -1.434320000000000039e-01 9.628799999999999859e-02 -1.221959000000000017e+00 6.341900000000000315e-02 -3.915400000000000130e-02 -2.277770000000000072e-01 3.261370000000000102e-01 9.999500000000000055e-02 -2.991030000000000078e-01 -3.346999999999999975e-01 -1.326739999999999864e-01 1.265429999999999888e-01 1.672230000000000105e+00 5.167460000000000386e-01 -3.676749999999999741e-01 1.126400000000000040e-01 -8.843689999999999607e-01 -3.085459999999999869e-01 4.629300000000000082e-01 -1.900020000000000042e-01 2.900389999999999913e-01
-9.517100000000000559e-02 -4.905959999999999765e-01 6.062819999999999876e-01 9.093280000000000252e-01 1.172519999999999951e-01 1.585860000000000047e-01 8.153669999999999529e-01 -3.317760000000000153e-01 5.451049999999999507e-01 4.096299999999999941e-02 2.849119999999999986e-01 -4.848700000000000232e-02 1.480029000000000039e+00 3.073230000000000128e-01 -3.001269999999999771e-01 -1.006660000000000110e+00 -1.001616000000000062e+00 1.897162000000000015e+00 -1.533960000000000046e-01 -3.104709999999999970e-01 8.761060000000000514e-01 4.366909999999999958e-01 5.690079999999999583e-01 4.794120000000000048e-01 1.359180000000000110e-01 2.584199999999999831e-01 -1.220199999999999931e-02 -7.681599999999999540e-02 1.872880000000000100e-01 -2.195090000000000097e-01 -7.407200000000000450e-01 -7.294009999999999661e-01 -4.713760000000000172e-01 -5.321879999999999944e-01 6.146719999999999962e-01 -3.893559999999999799e-01 -8.533659999999999579e-01 -2.895739999999999981e-01 -1.449910000000000088e-01 1.069304000000000032e+00 7.430740000000000123e-01 -8.137219999999999454e-01 -4.849040000000000017e-01 -1.486719999999999986e-01 -6.541050000000000475e-01 -6.836200000000000054e-01 2.444870000000000099e-01 2.084090000000000109e-01 -1.123790000000000067e-01 2.006020000000000025e-01 3.153460000000000152e-01 -2.252309999999999868e-01 -3.560969999999999969e-01 -1.712434999999999929e+00 -4.013209999999999833e-01 1.019869999999999943e-01 -1.656559999999999977e-01 4.781730000000000147e-01 2.917700000000000154e-02 -1.544419999999999960e-01
5.329199999999999909e-02 -8.833320000000000061e-01 1.918655999999999917e+00 -2.394940000000000124e-01 -4.143339999999999801e-01 1.040558000000000094e+00 -5.301540000000000141e-01 2.006030000000000035e-01 6.113990000000000258e-01 8.919829999999999703e-01 5.926780000000000381e-01 -5.264860000000000095e-01 -5.944089999999999652e-01 -2.862120000000000219e-01 -9.013280000000000181e-01 2.650040000000000173e-01 2.976550000000000029e-01 -2.380230000000000123e-01 -5.422700000000000298e-01 1.859137000000000040e+00 6.730800000000000116e-01 1.186060000000000031e-01 -3.368470000000000075e-01 -4.095100000000000129e-02 1.602550000000000086e-01 -1.403173000000000004e+00 -7.664750000000000174e-01 -9.945450000000000124e-01 4.388409999999999811e-01 4.395749999999999935e-01 8.046569999999999556e-01 3.776200000000000112e-01 -6.475990000000000357e-01 -2.265649999999999886e-01 8.285190000000000055e-01 -1.087822999999999984e+00 -6.833000000000000185e-02 -1.195839999999999959e-01 -4.120389999999999886e-01 2.781159999999999743e-01 1.985540000000000083e-01 -2.024509999999999921e-01 -1.762029999999999985e-01 2.426510000000000056e-01 2.803399999999999989e-02 2.027819999999999900e-01 4.285999999999999879e-03 5.175269999999999593e-01 -8.522100000000000508e-02 2.045319999999999916e-01 9.686230000000000118e-01 -5.716430000000000122e-01 -1.165820000000000051e-01 -1.039446000000000092e+00 2.852450000000000263e-01 -1.063482000000000038e+00 -4.232259999999999911e-01 9.688919999999999755e-01 -6.215309999999999446e-01 8.839400000000000035e-02
1.026200000000000029e-01 2.249999999999999917e-02 -1.106611000000000011e+00 -1.660820000000000074e-01 -8.813119999999999843e-01 8.103590000000000515e-01 -6.481299999999999562e-02 -2.611729999999999885e-01 -1.389853000000000005e+00 -3.905460000000000043e-01 -3.325649999999999995e-01 -9.423599999999999755e-01 5.574799999999999894e-02 -6.478699999999999737e-02 -3.943139999999999978e-01 -4.002640000000000087e-01 8.522000000000000061e-03 3.402459999999999929e-01 6.018139999999999601e-01 1.006666000000000061e+00 9.895400000000000029e-02 1.866735000000000033e+00 4.679960000000000231e-01 1.567061000000000037e+00 4.478980000000000183e-01 1.725069999999999937e-01 1.221800999999999915e+00 -1.676400000000000112e-01 -1.365369999999999917e-01 4.414440000000000031e-01 2.878310000000000035e-01 1.617304000000000075e+00 -4.819039999999999990e-01 5.174640000000000351e-01 -2.508889999999999731e-01 -1.003020000000000023e-01 1.623600000000000043e-02 -2.173299999999999954e-01 7.996269999999999767e-01 -5.508469999999999756e-01 1.892379999999999896e-01 -4.698669999999999791e-01 -6.372800000000000686e-02 8.323500000000000343e-02 7.245460000000000234e-01 4.152930000000000232e-01 -7.879500000000000393e-02 1.776619999999999866e-01 -2.132000000000000214e-03 5.139759999999999884e-01 4.848000000000000087e-01 -6.706220000000000514e-01 -2.628590000000000093e-01 -6.325800000000000312e-01 -6.846599999999999908e-02 6.883399999999999519e-01 -3.302789999999999893e-01 -1.766497999999999902e+00 -2.284037999999999791e+00 -8.184299999999999908e-01
-1.427173999999999943e+00 1.434538000000000091e+00 8.622560000000000224e-01 1.610010000000000052e-01 2.642760000000000109e-01 -3.569140000000000090e-01 -2.076099999999999890e-01 -1.309997000000000078e+00 6.802150000000000141e-01 -3.377600000000000047e-01 -9.468699999999999339e-02 -7.523020000000000262e-01 -7.221039999999999681e-01 4.539969999999999839e-01 7.903189999999999937e-01 -2.672660000000000036e-01 -1.857299999999999923e-02 1.505009999999999959e-01 2.763309999999999933e-01 4.882920000000000038e-01 -1.709229999999999916e-01 2.442560000000000009e-01 -2.696279999999999788e-01 9.522709999999999786e-01 -4.165490000000000026e-01 -4.332500000000000240e-02 -2.657200000000000117e-01 4.861119999999999886e-01 2.625560000000000116e-01 3.255930000000000213e-01 1.540270000000000028e+00 -7.424539999999999473e-01 -8.257060000000000510e-01 -2.962239999999999873e-01 1.031849999999999989e-01 3.120319999999999760e-01 1.549460000000000004e-01 -2.114169999999999938e-01 4.557149999999999812e-01 6.003469999999999640e-01 -2.785139999999999838e-01 1.052450000000000052e-01 -1.819050000000000111e-01 1.121019999999999933e-01 -4.854029999999999734e-01 4.362289999999999779e-01 -1.050669999999999937e-01 4.229069999999999774e-01 4.397920000000000162e-01 7.235129999999999617e-01 -9.910930000000000017e-01 6.171000000000000096e-02 -2.189659999999999940e-01 -1.794080000000000119e-01 2.976349999999999829e-01 1.546430000000000027e-01 -5.099599999999999689e-01 -8.420360000000000067e-01 -7.044740000000000446e-01 -5.196239999999999748e-01
-7.637950000000000017e-01 -3.075200000000000156e-02 -2.583333000000000101e+00 7.060560000000000169e-01 -4.218140000000000223e-01 1.067296999999999940e+00 4.146099999999999786e-01 -7.631179999999999630e-01 3.782209999999999739e-01 -2.581330000000000013e-01 3.267639999999999989e-01 -1.342659999999999965e-01 -9.282880000000000020e-01 3.850169999999999981e-01 6.063079999999999581e-01 3.916120000000000156e-01 4.709409999999999985e-01 8.606709999999999638e-01 3.550280000000000102e-01 -8.966669999999999918e-01 3.880160000000000275e-01 3.503499999999999670e-02 1.166647999999999907e+00 -6.145990000000000064e-01 2.489319999999999866e-01 2.654489999999999905e-01 6.497300000000000297e-01 -3.714020000000000099e-01 3.871280000000000276e-01 -3.025500000000000064e-02 1.558299999999999963e-02 6.925949999999999607e-01 -4.709349999999999925e-01 1.494769999999999988e-01 -2.672100000000000031e-01 3.318599999999999883e-01 4.430999999999999939e-01 1.027565999999999979e+00 1.541155000000000053e+00 8.448520000000000474e-01 -3.135910000000000086e-01 -8.241540000000000532e-01 -3.938499999999999779e-01 9.624299999999999522e-02 -8.373810000000000420e-01 -7.110870000000000246e-01 -1.245746000000000020e+00 -7.548559999999999715e-01 8.740100000000000646e-02 -9.310599999999999432e-02 -2.980039999999999911e-01 1.265789999999999971e-01 -9.684450000000000003e-01 3.751860000000000195e-01 -9.738399999999999834e-02 2.506630000000000247e-01 4.568249999999999811e-01 -2.943259999999999765e-01 -6.856600000000000195e-02 -1.074859999999999982e-01
6.022199999999999775e-02 -1.272189999999999988e-01 6.137179999999999858e-01 -1.828539999999999888e-01 2.647400000000000100e-02 -6.501300000000000134e-02 -9.482100000000000251e-02 4.046850000000000169e-01 -4.641020000000000145e-01 -2.430980000000000085e-01 5.587750000000000217e-01 5.573310000000000208e-01 9.911999999999999700e-01 -1.951390000000000069e-01 -2.924240000000000173e-01 1.546079999999999954e-01 1.089741999999999988e+00 2.958790000000000031e-01 -2.008600000000000108e-01 -4.800700000000000106e-02 -4.041139999999999732e-01 -1.097550000000000053e-01 2.603159999999999918e-01 -1.452096000000000053e+00 -1.454903000000000057e+00 -1.199524999999999952e+00 1.519860000000000100e-01 2.071129999999999916e-01 -6.610869999999999802e-01 2.145110000000000072e-01 1.021014000000000088e+00 -6.397199999999999553e-01 7.270500000000000573e-02 -1.869560000000000111e-01 1.075785999999999909e+00 -3.671389999999999931e-01 4.012749999999999928e-01 4.542329999999999979e-01 -5.010289999999999466e-01 3.829409999999999759e-01 -2.069580000000000031e-01 7.051599999999999535e-02 -1.759390000000000120e-01 -1.092613000000000056e+00 -2.927679999999999727e-01 -3.463189999999999880e-01 5.767409999999999481e-01 1.239289999999999975e-01 -6.530839999999999979e-01 -8.766200000000000381e-02 1.025141000000000080e+00 6.380399999999999960e-02 3.717690000000000161e-01 5.543090000000000517e-01 -2.497020000000000073e-01 -1.884800000000000086e-01 4.248859999999999859e-01 6.161149999999999682e-01 -3.721119999999999983e-01 -2.662269999999999914e-01
2.651629999999999820e-01 8.129889999999999617e-01 8.040180000000000105e-01 -1.676739999999999897e+00 -2.126600000000000018e-02 1.726900000000000102e-01 -9.873099999999999932e-02 3.267220000000000124e-01 -4.324979999999999936e-01 -6.526700000000000557e-02 -7.247959999999999958e-01 5.599999999999999916e-05 -1.207639999999999963e-01 2.654400000000000093e-01 -2.014499999999999902e-01 -1.090680000000000094e+00 1.198695000000000066e+00 2.139739999999999975e-01 -3.035340000000000260e-01 -3.301399999999999890e-01 -6.549709999999999699e-01 -7.534330000000000194e-01 -4.883910000000000196e-01 -2.163039999999999963e-01 -2.824949999999999961e-01 -1.898170000000000135e-01 3.204370000000000274e-01 5.051600000000000534e-01 2.863620000000000054e-01 7.249390000000000001e-01 -3.757349999999999857e-01 3.957919999999999772e-01 -3.317990000000000106e-01 7.645450000000000301e-01 -5.741479999999999917e-01 -1.531000000000000026e-03 -2.021399999999999933e-02 -1.165591000000000044e+00 -6.522400000000000420e-01 1.153758999999999979e+00 -1.993260000000000032e-01 -1.645780000000000021e-01 -8.591500000000000525e-02 -4.924120000000000164e-01 1.344160000000000077e-01 1.111985999999999919e+00 -8.784300000000000441e-02 -8.183190000000000186e-01 4.053160000000000096e-01 2.014060000000000017e-01 3.487080000000000179e-01 2.644699999999999829e-01 -1.909190000000000054e-01 1.940759999999999985e-01 -9.573099999999999943e-01 9.469309999999999672e-01 -1.033799999999999997e-01 1.360417999999999905e+00 3.031299999999999967e-02 6.637560000000000127e-01