8.256570818000000145e+00 0.000000000000000000e+00 0.000000000000000000e+00 9.480393999999999627e-03 7.084510485000000024e+00 0.000000000000000000e+00 -1.801977690000000076e-01 -3.410368619999999962e-01 2.884588229399999904e+01
8.141785849999999769e+00 0.000000000000000000e+00 0.000000000000000000e+00 -1.107704080000000008e-01 7.132768289000000372e+00 0.000000000000000000e+00 5.082352700000000167e-01 -1.715690860000000095e-01 2.957475130099999916e+01
8.082895692999999326e+00 0.000000000000000000e+00 0.000000000000000000e+00 3.099169999999999941e-04 6.729931181000000429e+00 0.000000000000000000e+00 0.000000000000000000e+00 0.000000000000000000e+00 2.849939703300000104e+01
8.611301552000000470e+00 0.000000000000000000e+00 0.000000000000000000e+00 9.887705000000000105e-03 7.388885468999999873e+00 0.000000000000000000e+00 -1.879396859999999947e-01 -3.556889810000000152e-01 3.008520079899999899e+01
8.241547741999999843e+00 0.000000000000000000e+00 0.000000000000000000e+00 9.463144999999999196e-03 7.071620008000000013e+00 0.000000000000000000e+00 -1.798698940000000024e-01 -3.404163350000000143e-01 2.879339635499999872e+01
8.329531359000000634e+00 0.000000000000000000e+00 0.000000000000000000e+00 -7.569951299999999605e-02 7.125108656000000096e+00 0.000000000000000000e+00 4.681523659999999865e-01 8.452152969999999765e-01 2.882793158599999828e+01
7.768312952999999688e+00 0.000000000000000000e+00 0.000000000000000000e+00 8.919764999999999638e-03 6.665563195999999913e+00 0.000000000000000000e+00 -1.695416529999999866e-01 -3.208694180000000173e-01 2.714006165600000031e+01
7.869926612999999627e+00 0.000000000000000000e+00 0.000000000000000000e+00 9.036439999999999750e-03 6.752752303000000289e+00 0.000000000000000000e+00 -1.717593480000000061e-01 -3.250665600000000044e-01 2.749506807899999927e+01
8.196704973999999311e+00 0.000000000000000000e+00 0.000000000000000000e+00 3.142800000000000064e-04 6.824690368999999812e+00 0.000000000000000000e+00 0.000000000000000000e+00 0.000000000000000000e+00 2.890067598299999929e+01
1.012729950199999962e+01 0.000000000000000000e+00 0.000000000000000000e+00 -1.815061930000000101e-01 8.202001318000000651e+00 0.000000000000000000e+00 5.937284369999999978e-01 6.401061040000000091e-01 3.621442530299999873e+01
8.509767038999999755e+00 0.000000000000000000e+00 0.000000000000000000e+00 9.771119999999999459e-03 7.301764272999999861e+00 0.000000000000000000e+00 -1.857237180000000099e-01 -3.514951080000000005e-01 2.973047088999999943e+01
8.713927620999999846e+00 0.000000000000000000e+00 0.000000000000000000e+00 1.373919300000000024e-02 7.099610465999999676e+00 0.000000000000000000e+00 1.591023049999999994e-01 -6.947625539999999766e-01 3.160512399099999925e+01
9.952954881000000142e+00 0.000000000000000000e+00 0.000000000000000000e+00 -1.783815069999999947e-01 8.060801306000000110e+00 0.000000000000000000e+00 5.835072169999999669e-01 6.290864779999999490e-01 3.559098266899999885e+01
8.610100234000000796e+00 0.000000000000000000e+00 0.000000000000000000e+00 1.357548899999999961e-02 7.015017840999999699e+00 0.000000000000000000e+00 1.572065840000000103e-01 -6.864843830000000313e-01 3.122854553000000166e+01
1.021147073200000044e+01 0.000000000000000000e+00 0.000000000000000000e+00 -1.830147490000000043e-01 8.270170778000000666e+00 0.000000000000000000e+00 5.986631049999999732e-01 6.454262309999999614e-01 3.651541498899999993e+01
8.181555162000000436e+00 0.000000000000000000e+00 0.000000000000000000e+00 3.136990000000000199e-04 6.812076423999999797e+00 0.000000000000000000e+00 0.000000000000000000e+00 0.000000000000000000e+00 2.884725941700000007e+01
8.229278151000000818e+00 0.000000000000000000e+00 0.000000000000000000e+00 5.547100499999999684e-02 6.832656290000000077e+00 0.000000000000000000e+00 3.329895769999999811e-01 -1.105361190000000021e-01 2.961275691199999827e+01
8.021976527999999718e+00 0.000000000000000000e+00 0.000000000000000000e+00 3.075810000000000219e-04 6.679209038999999848e+00 0.000000000000000000e+00 0.000000000000000000e+00 0.000000000000000000e+00 2.828460279000000099e+01
8.779765475999999680e+00 0.000000000000000000e+00 0.000000000000000000e+00 -1.573550589999999916e-01 7.110646623000000055e+00 0.000000000000000000e+00 5.147271919999999445e-01 5.549338670000000251e-01 3.139574976999999834e+01
1.003843667099999948e+01 0.000000000000000000e+00 0.000000000000000000e+00 -1.799135520000000044e-01 8.130032176000000277e+00 0.000000000000000000e+00 5.885187179999999962e-01 6.344894399999999601e-01 3.589665881700000227e+01
7.881775056000000390e+00 0.000000000000000000e+00 0.000000000000000000e+00 9.050044999999999618e-03 6.762918802999999812e+00 0.000000000000000000e+00 -1.720179370000000096e-01 -3.255559590000000059e-01 2.753646284299999891e+01
8.395049358999999711e+00 0.000000000000000000e+00 0.000000000000000000e+00 3.218849999999999988e-04 6.989834657000000284e+00 0.000000000000000000e+00 0.000000000000000000e+00 0.000000000000000000e+00 2.960001636499999833e+01
8.448502693000000008e+00 0.000000000000000000e+00 0.000000000000000000e+00 9.700775000000000023e-03 7.249196698000000438e+00 0.000000000000000000e+00 -1.843866379999999916e-01 -3.489645900000000189e-01 2.951643238000000125e+01
8.541524375999999918e+00 0.000000000000000000e+00 0.000000000000000000e+00 5.757575899999999719e-02 7.091910030000000198e+00 0.000000000000000000e+00 3.456243110000000174e-01 -1.147302280000000035e-01 3.073636355000000009e+01
1.008820281400000063e+01 0.000000000000000000e+00 0.000000000000000000e+00 -1.808054839999999885e-01 8.170337290999999169e+00 0.000000000000000000e+00 5.914363339999999525e-01 6.376349590000000012e-01 3.607461862600000302e+01
8.233963721000000291e+00 0.000000000000000000e+00 0.000000000000000000e+00 9.454436000000000090e-03 7.065112574999999673e+00 0.000000000000000000e+00 -1.797043740000000001e-01 -3.401030780000000031e-01 2.876690015100000153e+01
8.663418048000000482e+00 0.000000000000000000e+00 0.000000000000000000e+00 1.365955500000000031e-02 7.058458150999999958e+00 0.000000000000000000e+00 1.581800810000000002e-01 -6.907354190000000171e-01 3.142192745899999906e+01
7.943651378000000207e+00 0.000000000000000000e+00 0.000000000000000000e+00 9.121093000000000256e-03 6.816011480000000233e+00 0.000000000000000000e+00 -1.733683739999999918e-01 -3.281117550000000049e-01 2.775263940500000004e+01
7.980849438999999990e+00 0.000000000000000000e+00 0.000000000000000000e+00 9.163803999999999353e-03 6.847929095999999660e+00 0.000000000000000000e+00 -1.741802130000000004e-01 -3.296482170000000211e-01 2.788259782600000136e+01
8.670153881999999257e+00 0.000000000000000000e+00 0.000000000000000000e+00 1.367017599999999916e-02 7.063946123000000021e+00 0.000000000000000000e+00 1.583030669999999918e-01 -6.912724679999999733e-01 3.144635810300000145e+01
1.024508075900000037e+01 0.000000000000000000e+00 0.000000000000000000e+00 -1.836171239999999927e-01 8.297391212000000849e+00 0.000000000000000000e+00 6.006335440000000192e-01 6.475505860000000391e-01 3.663560179899999980e+01
8.186260151000000818e+00 0.000000000000000000e+00 0.000000000000000000e+00 9.399661999999999601e-03 7.024180759000000052e+00 0.000000000000000000e+00 -1.786632549999999930e-01 -3.381326869999999873e-01 2.860023876099999995e+01
8.962639982000000671e+00 0.000000000000000000e+00 0.000000000000000000e+00 1.413133700000000076e-02 7.302247089999999830e+00 0.000000000000000000e+00 1.636433929999999981e-01 -7.145924219999999494e-01 3.250719540499999738e+01
8.318086714999999742e+00 0.000000000000000000e+00 0.000000000000000000e+00 -7.559550299999999445e-02 7.115318869000000213e+00 0.000000000000000000e+00 4.675091319999999939e-01 8.440539849999999511e-01 2.878832246600000033e+01
8.317933275999999765e+00 0.000000000000000000e+00 0.000000000000000000e+00 5.606860100000000263e-02 6.906265420000000432e+00 0.000000000000000000e+00 3.365769189999999744e-01 -1.117269399999999968e-01 2.993177914299999998e+01
8.579948706999999786e+00 0.000000000000000000e+00 0.000000000000000000e+00 6.814803599999999517e-02 6.993433071000000112e+00 0.000000000000000000e+00 -8.480342300000000000e-01 1.547242470000000092e-01 2.919543549200000143e+01
8.544553922000000412e+00 0.000000000000000000e+00 0.000000000000000000e+00 -7.765365700000000093e-02 7.309039667000000406e+00 0.000000000000000000e+00 4.802374790000000226e-01 8.670340949999999491e-01 2.957210979599999945e+01
8.682207691000000338e+00 0.000000000000000000e+00 0.000000000000000000e+00 1.368918099999999992e-02 7.073766877999999814e+00 0.000000000000000000e+00 1.585231500000000016e-01 -6.922335189999999638e-01 3.149007686499999892e+01
8.201630756000000133e+00 0.000000000000000000e+00 0.000000000000000000e+00 9.417310999999999391e-03 7.037369432000000202e+00 0.000000000000000000e+00 -1.789987150000000027e-01 -3.387675680000000189e-01 2.865393886100000032e+01
8.459514280000000497e+00 0.000000000000000000e+00 0.000000000000000000e+00 6.719145999999999452e-02 6.895268136000000325e+00 0.000000000000000000e+00 -8.361306020000000006e-01 1.525524249999999915e-01 2.878562703600000106e+01
1.076128435799999927e+01 0.000000000000000000e+00 0.000000000000000000e+00 -1.928687659999999970e-01 8.715459483000000063e+00 0.000000000000000000e+00 6.308967699999999956e-01 6.801777509999999971e-01 3.848150520899999805e+01
8.270264029999999877e+00 0.000000000000000000e+00 0.000000000000000000e+00 9.496117000000000100e-03 7.096259878999999771e+00 0.000000000000000000e+00 -1.804966199999999965e-01 -3.416024590000000249e-01 2.889372210399999830e+01
8.660727295999999242e+00 0.000000000000000000e+00 0.000000000000000000e+00 3.320719999999999878e-04 7.211041797000000031e+00 0.000000000000000000e+00 0.000000000000000000e+00 0.000000000000000000e+00 3.053676741399999983e+01
8.357680404999999979e+00 0.000000000000000000e+00 0.000000000000000000e+00 3.204519999999999873e-04 6.958720747000000095e+00 0.000000000000000000e+00 0.000000000000000000e+00 0.000000000000000000e+00 2.946825756300000165e+01
1.028884194199999946e+01 0.000000000000000000e+00 0.000000000000000000e+00 -1.844014320000000040e-01 8.332832967999999951e+00 0.000000000000000000e+00 6.031991100000000383e-01 6.503165560000000456e-01 3.679208834300000319e+01
8.308819185999999135e+00 0.000000000000000000e+00 0.000000000000000000e+00 5.600716599999999712e-02 6.898698115000000186e+00 0.000000000000000000e+00 3.362081259999999960e-01 -1.116045189999999993e-01 2.989898241999999939e+01
8.209441891000000879e+00 0.000000000000000000e+00 0.000000000000000000e+00 9.426280000000000422e-03 7.044071738000000416e+00 0.000000000000000000e+00 -1.791691910000000054e-01 -3.390902060000000051e-01 2.868122852699999825e+01
1.165421545300000084e+01 0.000000000000000000e+00 0.000000000000000000e+00 -2.088722939999999861e-01 9.438635688999999829e+00 0.000000000000000000e+00 6.832462230000000414e-01 7.366163550000000004e-01 4.167455647100000249e+01
7.822353943000000420e+00 0.000000000000000000e+00 0.000000000000000000e+00 8.981816000000000105e-03 6.711932805000000002e+00 0.000000000000000000e+00 -1.707210849999999946e-01 -3.231015760000000014e-01 2.732886401500000062e+01
8.440310226999999443e+00 0.000000000000000000e+00 0.000000000000000000e+00 3.236210000000000107e-04 7.027519483999999927e+00 0.000000000000000000e+00 0.000000000000000000e+00 0.000000000000000000e+00 2.975960118400000098e+01
8.911039048999999324e+00 0.000000000000000000e+00 0.000000000000000000e+00 -1.597078050000000082e-01 7.216963812999999561e+00 0.000000000000000000e+00 5.224233059999999762e-01 5.632311439999999614e-01 3.186517372699999839e+01
8.247752719999999371e+00 0.000000000000000000e+00 0.000000000000000000e+00 -7.495630200000000243e-02 7.055154938000000264e+00 0.000000000000000000e+00 4.635560859999999783e-01 8.369170449999999706e-01 2.854490137699999863e+01
8.506490854000000823e+00 0.000000000000000000e+00 0.000000000000000000e+00 -1.611564460000000087e-01 7.003485222000000121e+00 0.000000000000000000e+00 -3.828805730000000018e-01 3.270271630000000096e-01 2.976912620399999909e+01
8.336953422000000558e+00 0.000000000000000000e+00 0.000000000000000000e+00 1.580323459999999902e-01 6.847377001999999990e+00 0.000000000000000000e+00 8.934576450000000225e-01 -9.758786099999999797e-02 3.046450534899999951e+01
8.404146337000000244e+00 0.000000000000000000e+00 0.000000000000000000e+00 9.649843999999999436e-03 7.211136942999999633e+00 0.000000000000000000e+00 -1.834185710000000025e-01 -3.471324550000000064e-01 2.936146511300000128e+01
8.408324632999999437e+00 0.000000000000000000e+00 0.000000000000000000e+00 1.593852329999999873e-01 6.905996208000000358e+00 0.000000000000000000e+00 9.011063809999999563e-01 -9.842329399999999451e-02 3.072530669000000003e+01
8.330828986000000214e+00 0.000000000000000000e+00 0.000000000000000000e+00 -1.578285120000000041e-01 6.858860919999999695e+00 0.000000000000000000e+00 -3.749739610000000223e-01 3.202739430000000054e-01 2.915438383700000102e+01
7.860607265999999704e+00 0.000000000000000000e+00 0.000000000000000000e+00 9.025738999999999637e-03 6.744755882999999841e+00 0.000000000000000000e+00 -1.715559550000000100e-01 -3.246816260000000010e-01 2.746250918799999852e+01
1.101263910399999979e+01 0.000000000000000000e+00 0.000000000000000000e+00 -1.973736630000000047e-01 8.919029246999999216e+00 0.000000000000000000e+00 6.456328270000000202e-01 6.960648799999999969e-01 3.938032998199999923e+01
7.852103795999999747e+00 0.000000000000000000e+00 0.000000000000000000e+00 9.015976000000000198e-03 6.737459520999999896e+00 0.000000000000000000e+00 -1.713703689999999946e-01 -3.243303909999999957e-01 2.743280071599999914e+01
8.349656450999999535e+00 0.000000000000000000e+00 0.000000000000000000e+00 9.587277999999999425e-03 7.164382160999999805e+00 0.000000000000000000e+00 -1.822293409999999891e-01 -3.448817550000000121e-01 2.917109445399999856e+01
8.529396435000000665e+00 0.000000000000000000e+00 0.000000000000000000e+00 -1.528678280000000111e-01 6.907875172999999869e+00 0.000000000000000000e+00 5.000489240000000057e-01 5.391090410000000110e-01 3.050044980099999847e+01
1.020702903900000003e+01 0.000000000000000000e+00 0.000000000000000000e+00 -1.829351429999999945e-01 8.266573493999999300e+00 0.000000000000000000e+00 5.984027039999999520e-01 6.451454890000000164e-01 3.649953184799999661e+01
8.312354954999999990e+00 0.000000000000000000e+00 0.000000000000000000e+00 6.602261700000000566e-02 6.775319996000000344e+00 0.000000000000000000e+00 -8.215855100000000188e-01 1.498986660000000137e-01 2.828488038500000101e+01
8.332719097000000019e+00 0.000000000000000000e+00 0.000000000000000000e+00 3.194949999999999895e-04 6.937937615000000058e+00 0.000000000000000000e+00 0.000000000000000000e+00 0.000000000000000000e+00 2.938024674800000113e+01
8.852159285000000821e+00 0.000000000000000000e+00 0.000000000000000000e+00 1.395714200000000051e-02 7.212233729000000260e+00 0.000000000000000000e+00 1.616261930000000013e-01 -7.057837820000000262e-01 3.210648561200000017e+01
8.598826373999999717e+00 0.000000000000000000e+00 0.000000000000000000e+00 1.629963170000000017e-01 7.062460706999999616e+00 0.000000000000000000e+00 9.215221399999999896e-01 -1.006532039999999961e-01 3.142142924399999870e+01
1.029224814900000062e+01 0.000000000000000000e+00 0.000000000000000000e+00 -1.844624800000000120e-01 8.335591622000000811e+00 0.000000000000000000e+00 6.033988040000000108e-01 6.505318479999999681e-01 3.680426866900000249e+01
8.357614028000000417e+00 0.000000000000000000e+00 0.000000000000000000e+00 9.596415000000000500e-03 7.171210120999999660e+00 0.000000000000000000e+00 -1.824030140000000022e-01 -3.452104420000000062e-01 2.919889574400000143e+01
8.597579707999999599e+00 0.000000000000000000e+00 0.000000000000000000e+00 3.296509999999999783e-04 7.158464237999999646e+00 0.000000000000000000e+00 0.000000000000000000e+00 0.000000000000000000e+00 3.031411599699999826e+01
8.453416917000000197e+00 0.000000000000000000e+00 0.000000000000000000e+00 -1.515060870000000115e-01 6.846340101000000011e+00 0.000000000000000000e+00 4.955945079999999892e-01 5.343066789999999511e-01 3.022875303000000002e+01
7.911079360999999643e+00 0.000000000000000000e+00 0.000000000000000000e+00 9.083693000000000323e-03 6.788063218999999648e+00 0.000000000000000000e+00 -1.726574969999999931e-01 -3.267663709999999999e-01 2.763884294200000014e+01
8.448534908999999260e+00 0.000000000000000000e+00 0.000000000000000000e+00 1.332074999999999926e-02 6.883383643000000163e+00 0.000000000000000000e+00 1.542566609999999894e-01 -6.736027589999999954e-01 3.064255350099999831e+01
8.241060044999999334e+00 0.000000000000000000e+00 0.000000000000000000e+00 9.462585000000000787e-03 7.071201541999999840e+00 0.000000000000000000e+00 -1.798592499999999983e-01 -3.403961910000000146e-01 2.879169249399999941e+01
8.269709750000000525e+00 0.000000000000000000e+00 0.000000000000000000e+00 3.170790000000000045e-04 6.885475158000000206e+00 0.000000000000000000e+00 0.000000000000000000e+00 0.000000000000000000e+00 2.915808275399999872e+01
7.743900342999999964e+00 0.000000000000000000e+00 0.000000000000000000e+00 8.891734000000000096e-03 6.644616073999999983e+00 0.000000000000000000e+00 -1.690088529999999867e-01 -3.198610570000000042e-01 2.705477161399999986e+01
8.254677567999999965e+00 0.000000000000000000e+00 0.000000000000000000e+00 3.165029999999999883e-04 6.872959155000000209e+00 0.000000000000000000e+00 0.000000000000000000e+00 0.000000000000000000e+00 2.910508094100000065e+01
8.216384715000000227e+00 0.000000000000000000e+00 0.000000000000000000e+00 9.434252000000000610e-03 7.050028994999999910e+00 0.000000000000000000e+00 -1.793207159999999911e-01 -3.393769790000000230e-01 2.870548459100000116e+01
8.137170670999999800e+00 0.000000000000000000e+00 0.000000000000000000e+00 9.343295999999999199e-03 6.982059770000000221e+00 0.000000000000000000e+00 -1.775918880000000033e-01 -3.361050509999999880e-01 2.842873543600000019e+01
8.510214255999999367e+00 0.000000000000000000e+00 0.000000000000000000e+00 -1.525240360000000017e-01 6.892339713000000145e+00 0.000000000000000000e+00 4.989243389999999945e-01 5.378966120000000517e-01 3.043185584000000077e+01
1.059994211399999919e+01 0.000000000000000000e+00 0.000000000000000000e+00 -1.899771150000000020e-01 8.584789969999999215e+00 0.000000000000000000e+00 6.214378339999999667e-01 6.699799530000000169e-01 3.790455805199999872e+01
8.732345818000000648e+00 0.000000000000000000e+00 0.000000000000000000e+00 1.376823299999999951e-02 7.114616559999999978e+00 0.000000000000000000e+00 1.594385919999999901e-01 -6.962310390000000515e-01 3.167192617299999924e+01
8.507373925999999642e+00 0.000000000000000000e+00 0.000000000000000000e+00 3.261919999999999967e-04 7.083357652000000115e+00 0.000000000000000000e+00 0.000000000000000000e+00 0.000000000000000000e+00 2.999606037699999916e+01
8.463790107999999535e+00 0.000000000000000000e+00 0.000000000000000000e+00 6.722542200000000689e-02 6.898753322000000132e+00 0.000000000000000000e+00 -8.365532209999999580e-01 1.526295320000000122e-01 2.880017661700000176e+01
8.180296059999999869e+00 0.000000000000000000e+00 0.000000000000000000e+00 -1.112943460000000023e-01 7.166505899999999762e+00 0.000000000000000000e+00 5.106391949999999902e-01 -1.723805979999999960e-01 2.971463828599999957e+01
1.059007321200000007e+01 0.000000000000000000e+00 0.000000000000000000e+00 -1.898002390000000095e-01 8.576797241999999599e+00 0.000000000000000000e+00 6.208592550000000543e-01 6.693561799999999673e-01 3.786926763700000009e+01
1.009066328599999984e+01 0.000000000000000000e+00 0.000000000000000000e+00 -1.808495810000000092e-01 8.172330003000000787e+00 0.000000000000000000e+00 5.915805830000000487e-01 6.377904749999999678e-01 3.608341707799999654e+01
1.004711593200000053e+01 0.000000000000000000e+00 0.000000000000000000e+00 -1.800691050000000071e-01 8.137061425000000625e+00 0.000000000000000000e+00 5.890275529999999815e-01 6.350380209999999526e-01 3.592769517199999996e+01
1.017567324500000048e+01 0.000000000000000000e+00 0.000000000000000000e+00 -1.823731700000000011e-01 8.241178742000000668e+00 0.000000000000000000e+00 5.965644220000000386e-01 6.431636149999999663e-01 3.638740599799999842e+01
8.123776289000000261e+00 0.000000000000000000e+00 0.000000000000000000e+00 9.327916999999999806e-03 6.970566784999999932e+00 0.000000000000000000e+00 -1.772995589999999955e-01 -3.355517969999999850e-01 2.838193964499999922e+01
7.825920791999999793e+00 0.000000000000000000e+00 0.000000000000000000e+00 8.985912000000000413e-03 6.714993321999999765e+00 0.000000000000000000e+00 -1.707989309999999872e-01 -3.232489040000000036e-01 2.734132547100000110e+01
7.809504911000000327e+00 0.000000000000000000e+00 0.000000000000000000e+00 8.967063000000000811e-03 6.700907756000000326e+00 0.000000000000000000e+00 -1.704406579999999949e-01 -3.225708480000000211e-01 2.728397350499999874e+01
9.480384813000000577e+00 0.000000000000000000e+00 0.000000000000000000e+00 -1.699118860000000120e-01 7.678071407000000015e+00 0.000000000000000000e+00 5.558020729999999521e-01 5.992172129999999708e-01 3.390110933199999721e+01
8.504224663000000461e+00 0.000000000000000000e+00 0.000000000000000000e+00 -1.524166869999999951e-01 6.887488799999999856e+00 0.000000000000000000e+00 4.985731899999999994e-01 5.375180339999999779e-01 3.041043752699999914e+01
1.011542751900000070e+01 0.000000000000000000e+00 0.000000000000000000e+00 -1.812934180000000117e-01 8.192386314000000169e+00 0.000000000000000000e+00 5.930324240000000025e-01 6.393557229999999869e-01 3.617197202500000230e+01
8.315785774000000075e+00 0.000000000000000000e+00 0.000000000000000000e+00 9.548386000000000720e-03 7.135319591000000017e+00 0.000000000000000000e+00 -1.814901220000000037e-01 -3.434827300000000139e-01 2.905276087600000068e+01
8.546701086000000558e+00 0.000000000000000000e+00 0.000000000000000000e+00 3.276999999999999965e-04 7.116101990999999849e+00 0.000000000000000000e+00 0.000000000000000000e+00 0.000000000000000000e+00 3.013472359500000053e+01
7.744661637000000098e+00 0.000000000000000000e+00 0.000000000000000000e+00 8.892607999999999763e-03 6.645269298999999741e+00 0.000000000000000000e+00 -1.690254680000000120e-01 -3.198925029999999947e-01 2.705743133800000066e+01
8.795585221999999703e+00 0.000000000000000000e+00 0.000000000000000000e+00 1.386794199999999942e-02 7.166140414000000014e+00 0.000000000000000000e+00 1.605932409999999977e-01 -7.012731239999999699e-01 3.190129337699999823e+01
8.626286503999999411e+00 0.000000000000000000e+00 0.000000000000000000e+00 1.360101000000000018e-02 7.028205490000000388e+00 0.000000000000000000e+00 1.575021189999999960e-01 -6.877749159999999584e-01 3.128725259100000144e+01
1.032926867299999962e+01 0.000000000000000000e+00 0.000000000000000000e+00 -1.851259789999999961e-01 8.365574183999999747e+00 0.000000000000000000e+00 6.055691890000000077e-01 6.528717680000000190e-01 3.693665114699999918e+01
8.364381659999999385e+00 0.000000000000000000e+00 0.000000000000000000e+00 3.086815899999999918e-02 7.294734702000000404e+00 0.000000000000000000e+00 3.968128610000000167e-01 -4.684403549999999750e-01 3.019706221599999907e+01
8.203205352999999533e+00 0.000000000000000000e+00 0.000000000000000000e+00 6.515567299999999729e-02 6.686353213000000295e+00 0.000000000000000000e+00 -8.107972639999999620e-01 1.479303449999999909e-01 2.791347138400000105e+01
8.755542569999999358e+00 0.000000000000000000e+00 0.000000000000000000e+00 1.380480700000000054e-02 7.133515949000000411e+00 0.000000000000000000e+00 1.598621269999999928e-01 -6.980805190000000104e-01 3.175606001899999953e+01
8.171649229999999875e+00 0.000000000000000000e+00 0.000000000000000000e+00 9.382885000000000530e-03 7.011643928999999886e+00 0.000000000000000000e+00 -1.783443749999999994e-01 -3.375291839999999821e-01 2.854919276200000056e+01
8.414452311999999878e+00 0.000000000000000000e+00 0.000000000000000000e+00 3.226290000000000039e-04 7.005989825000000337e+00 0.000000000000000000e+00 0.000000000000000000e+00 0.000000000000000000e+00 2.966842903199999881e+01
8.911191670999999204e+00 0.000000000000000000e+00 0.000000000000000000e+00 1.405021799999999974e-02 7.260329944999999618e+00 0.000000000000000000e+00 1.627040290000000000e-01 -7.104904410000000281e-01 3.232059409899999736e+01
8.343714383000000012e+00 0.000000000000000000e+00 0.000000000000000000e+00 3.199170000000000204e-04 6.947092442999999840e+00 0.000000000000000000e+00 0.000000000000000000e+00 0.000000000000000000e+00 2.941901491100000143e+01
1.084627804500000003e+01 0.000000000000000000e+00 0.000000000000000000e+00 -1.943920620000000044e-01 8.784295043000000192e+00 0.000000000000000000e+00 6.358796549999999881e-01 6.855498629999999816e-01 3.878543593700000258e+01
8.883807570000000098e+00 0.000000000000000000e+00 0.000000000000000000e+00 -1.592197499999999932e-01 7.194909303000000200e+00 0.000000000000000000e+00 5.208268190000000519e-01 5.615099510000000071e-01 3.176779610299999845e+01
8.347434075000000675e+00 0.000000000000000000e+00 0.000000000000000000e+00 3.200599999999999951e-04 6.950189510999999598e+00 0.000000000000000000e+00 0.000000000000000000e+00 0.000000000000000000e+00 2.943213013700000147e+01
8.624911679000000220e+00 0.000000000000000000e+00 0.000000000000000000e+00 1.634907810000000017e-01 7.083885310000000324e+00 0.000000000000000000e+00 9.243176600000000409e-01 -1.009585439999999973e-01 3.151674894699999996e+01
8.344933445000000560e+00 0.000000000000000000e+00 0.000000000000000000e+00 -1.580957219999999941e-01 6.870473272999999992e+00 0.000000000000000000e+00 -3.756088089999999879e-01 3.208161809999999781e-01 2.920374348700000056e+01
8.227706758000000065e+00 0.000000000000000000e+00 0.000000000000000000e+00 9.447251999999999733e-03 7.059743819000000364e+00 0.000000000000000000e+00 -1.795678169999999907e-01 -3.398446350000000060e-01 2.874504027400000084e+01
1.081380204599999928e+01 0.000000000000000000e+00 0.000000000000000000e+00 -1.938100120000000037e-01 8.757993047999999447e+00 0.000000000000000000e+00 6.339757000000000309e-01 6.834971850000000071e-01 3.866930432600000245e+01
8.479058313999999541e+00 0.000000000000000000e+00 0.000000000000000000e+00 9.735860000000000694e-03 7.275414801000000153e+00 0.000000000000000000e+00 -1.850535080000000054e-01 -3.502266869999999810e-01 2.962318418699999967e+01
8.335867113999999134e+00 0.000000000000000000e+00 0.000000000000000000e+00 9.571444000000000132e-03 7.152550287000000395e+00 0.000000000000000000e+00 -1.819283919999999943e-01 -3.443121880000000190e-01 2.912291881200000176e+01
8.175595756999999963e+00 0.000000000000000000e+00 0.000000000000000000e+00 9.387417000000000331e-03 7.015030226999999563e+00 0.000000000000000000e+00 -1.784305069999999882e-01 -3.376921949999999728e-01 2.856298069500000025e+01
8.748439700000000485e+00 0.000000000000000000e+00 0.000000000000000000e+00 -1.567936229999999931e-01 7.085276182000000311e+00 0.000000000000000000e+00 5.128906709999999647e-01 5.529538899999999479e-01 3.128373126099999979e+01
8.145960268999999698e+00 0.000000000000000000e+00 0.000000000000000000e+00 9.353389000000000147e-03 6.989601641000000143e+00 0.000000000000000000e+00 -1.777837190000000067e-01 -3.364681039999999901e-01 2.845944354799999942e+01
8.589100285000000667e+00 0.000000000000000000e+00 0.000000000000000000e+00 5.789645399999999997e-02 7.131411651999999712e+00 0.000000000000000000e+00 3.475494230000000240e-01 -1.153692699999999960e-01 3.090756372199999902e+01
8.030663560000000700e+00 0.000000000000000000e+00 0.000000000000000000e+00 9.221002000000000712e-03 6.890671860000000315e+00 0.000000000000000000e+00 -1.752673949999999925e-01 -3.317057849999999752e-01 2.805663282000000081e+01
8.305909790999999487e+00 0.000000000000000000e+00 0.000000000000000000e+00 -1.573564149999999995e-01 6.838344679999999620e+00 0.000000000000000000e+00 -3.738523380000000063e-01 3.193159389999999931e-01 2.906717717600000128e+01
8.286460529999999380e+00 0.000000000000000000e+00 0.000000000000000000e+00 -1.127387319999999943e-01 7.259513327999999710e+00 0.000000000000000000e+00 5.172663069999999808e-01 -1.746177660000000076e-01 3.010027699600000162e+01
9.504589808000000417e+00 0.000000000000000000e+00 0.000000000000000000e+00 -1.703456989999999893e-01 7.697674796000000264e+00 0.000000000000000000e+00 5.572211280000000100e-01 6.007471140000000265e-01 3.398766448599999990e+01
8.182628642999999258e+00 0.000000000000000000e+00 0.000000000000000000e+00 3.137409999999999765e-04 6.812970220000000410e+00 0.000000000000000000e+00 0.000000000000000000e+00 0.000000000000000000e+00 2.885104439499999884e+01
1.125253153100000070e+01 0.000000000000000000e+00 0.000000000000000000e+00 -2.016731270000000076e-01 9.113315787999999529e+00 0.000000000000000000e+00 6.596968880000000368e-01 7.112275209999999737e-01 4.023816640300000103e+01
8.841401492999999334e+00 0.000000000000000000e+00 0.000000000000000000e+00 -1.584597279999999941e-01 7.160565034000000217e+00 0.000000000000000000e+00 5.183406980000000441e-01 5.588296329999999923e-01 3.161615531099999998e+01
8.526443186999999924e+00 0.000000000000000000e+00 0.000000000000000000e+00 9.790267999999999540e-03 7.316073160000000186e+00 0.000000000000000000e+00 -1.860876720000000095e-01 -3.521839139999999868e-01 2.978873214700000105e+01
8.558399454999999989e+00 0.000000000000000000e+00 0.000000000000000000e+00 9.826961000000000376e-03 7.343493081000000089e+00 0.000000000000000000e+00 -1.867851100000000042e-01 -3.535038649999999727e-01 2.990037737800000173e+01
8.185423032999999293e+00 0.000000000000000000e+00 0.000000000000000000e+00 3.138479999999999807e-04 6.815296867999999897e+00 0.000000000000000000e+00 0.000000000000000000e+00 0.000000000000000000e+00 2.886089710399999930e+01
8.256783142999999825e+00 0.000000000000000000e+00 0.000000000000000000e+00 6.558122600000000635e-02 6.730023950999999727e+00 0.000000000000000000e+00 -8.160928429999999567e-01 1.488965260000000013e-01 2.809578330500000121e+01