4.643839999999999968e+00 5.727839999999999598e+00 4.614300000000000068e-01 5.853800000000000114e-01 5.630399999999999849e+00 2.818111999999999995e+01 2.901409999999999823e+00 3.994829999999999881e+00 7.095410000000000217e+00 6.766600000000000392e+00 3.922280000000000211e+00 5.975259999999999572e+00 2.581389999999999851e+00 1.937400000000000011e+00 2.861131999999999920e+01 7.764710000000000001e+00 2.045350000000000001e+00 2.050250000000000128e+00 8.830999999999999961e-01 4.597800000000000220e-01 7.314149999999999707e+00 4.731049999999999756e+00 1.890099999999999891e+00 3.781649999999999956e+00 6.894900000000000473e-01 3.157779999999999809e+00 2.730302000000000007e+01 5.117869999999999919e+00 2.890610000000000124e+00 2.879581999999999908e+01 6.739889999999999937e+00 6.036609999999999587e+00 7.493719999999999715e+00 3.182059999999999889e+00 6.242320000000000313e+00 7.966169999999999973e+00 2.209210000000000118e+00 3.070800000000000196e+00 2.115510000000000002e+00 6.131190000000000140e+00 4.067020000000000302e+00 3.477450000000000152e+00 2.931709999999999816e+00 6.726969999999999672e+00 2.756071999999999989e+01 6.855559999999999654e+00 6.035000000000000087e-02 2.824521999999999977e+01 3.614100000000000090e-01 2.923259999999999970e+00 7.774860000000000326e+00 4.658409999999999940e+00 2.319539999999999935e+00 6.843549999999999578e+00 3.649579999999999824e+00 6.209139999999999660e+00 2.797989999999999977e+00 6.471129999999999605e+00 6.834249999999999936e+00 3.498170000000000002e+00
5.545189999999999841e+00 3.050980000000000025e+00 9.096699999999999786e-01 1.204429999999999890e+00 3.380799999999999805e+00 9.215999999999999748e-01 1.430760000000000032e+00 1.489199999999999968e-01 6.069960000000000022e+00 5.666570000000000107e+00 1.143760000000000110e+00 6.370470000000000077e+00 3.374830000000000219e+00 6.840049999999999741e+00 7.684800000000000519e-01 7.498520000000000074e+00 6.973840000000000039e+00 1.468920000000000003e+00 3.274140000000000050e+00 4.277639999999999887e+00 4.230889999999999596e+00 7.382390000000000008e+00 4.539869999999999628e+00 4.852420000000000400e+00 1.811490000000000045e+00 9.376400000000000290e-01 2.934669999999999845e+01 6.288660000000000139e+00 5.172400000000000331e-01 2.932839999999999847e+01 7.337760000000000282e+00 3.134139999999999926e+00 7.153609999999999580e+00 3.126970000000000027e+00 1.964769999999999905e+00 6.490199999999999747e+00 5.547640000000000349e+00 3.264959999999999862e+00 3.450380000000000003e+00 2.629770000000000163e+00 6.692440000000000389e+00 3.362779999999999880e+00 3.979610000000000092e+00 4.279740000000000322e+00 2.939979999999999905e+01 7.789860000000000007e+00 4.595769999999999911e+00 2.952230000000000132e+01 1.409729999999999928e+00 4.900750000000000384e+00 6.742939999999999934e+00 4.591050000000000075e+00 5.747659999999999769e+00 6.225060000000000038e+00 1.089310000000000000e+00 3.142710000000000115e+00 3.469370000000000065e+00 7.319230000000000125e+00 4.454000000000000320e-02 4.469470000000000276e+00
3.901609999999999800e+00 3.469219999999999970e+00 2.138350000000000151e+01 4.143119999999999692e+00 5.573290000000000077e+00 1.443909999999999982e+01 6.694589999999999819e+00 1.743899999999999895e-01 1.891090000000000160e+01 8.036120000000000374e+00 5.453009999999999913e+00 1.559929999999999950e+01 1.805749999999999966e+00 2.232999999999999985e-01 2.010849999999999937e+01 5.466800000000000548e-01 3.324819999999999887e+00 2.189450000000000074e+01 6.492230000000000167e+00 2.061700000000000088e+00 1.278350000000000009e+01 2.878519999999999968e+00 2.859309999999999796e+00 1.356020000000000003e+01 5.670880000000000365e+00 5.119640000000000413e+00 1.701579999999999870e+01 4.392339999999999911e+00 7.297799999999999843e-01 2.022210000000000107e+01 7.100699999999999790e-01 6.498699999999999477e-01 1.798160000000000025e+01 5.192160000000000331e+00 1.136039999999999939e+00 1.510629999999999917e+01 2.748099999999999987e-01 5.326719999999999899e+00 1.304540000000000077e+01 6.295810000000000350e+00 4.410040000000000404e+00 2.108709999999999951e+01 8.079710000000000392e+00 8.126999999999999780e-01 2.170039999999999836e+01 1.888889999999999958e+00 4.320059999999999789e+00 1.990729999999999933e+01 2.424150000000000027e+00 4.206949999999999967e+00 2.332460000000000022e+01 2.436269999999999936e+00 4.187359999999999971e+00 1.595480000000000054e+01 1.276850000000000041e+00 9.797700000000000298e-01 1.268379999999999974e+01 4.684980000000000366e+00 4.417690000000000339e+00 1.211439999999999984e+01
8.359750000000000014e+00 4.599579999999999558e+00 3.884500000000000175e-01 1.775279999999999969e+00 3.753210000000000157e+00 3.897299999999999986e+00 3.356860000000000177e+00 4.594380000000000130e+00 1.784199999999999953e-01 5.202370000000000161e+00 1.197040000000000104e+00 1.856039999999999912e+00 1.575700000000000101e+00 7.971799999999999997e-01 3.753299999999999970e-01 6.700440000000000396e+00 4.310579999999999856e+00 6.965110000000000134e+00 6.339799999999999880e-01 1.038610000000000033e+00 6.080820000000000114e+00 4.455680000000000085e+00 9.510899999999999910e-01 6.909939999999999749e+00 7.888620000000000410e+00 6.921230000000000437e+00 2.972477999999999909e+01 1.444690000000000030e+00 5.343950000000000422e+00 2.208629999999999871e+00 2.549249999999999794e+00 1.864770000000000039e+00 2.517980000000000107e+00 6.920130000000000337e+00 6.716310000000000002e+00 7.223469999999999835e+00 5.892260000000000275e+00 3.531190000000000051e+00 8.446399999999999464e-01 4.719540000000000290e+00 2.874569999999999848e+00 8.534019999999999939e+00 3.972309999999999786e+00 6.855800000000000338e+00 2.983648000000000167e+01 6.044089999999999741e+00 2.299310000000000187e+00 5.000119999999999898e+00 2.681960000000000122e+00 7.083610000000000184e+00 5.797920000000000407e+00 1.358849999999999891e+00 3.550120000000000164e+00 6.330729999999999968e+00 7.831479999999999997e+00 9.428699999999999859e-01 3.864700000000000024e+00 1.487889999999999935e+00 2.643130000000000202e+00 2.885617999999999839e+01
4.746920000000000250e+00 5.754249999999999865e+00 4.088499999999999912e-01 6.786799999999999500e-01 5.632010000000000183e+00 2.808296999999999954e+01 2.797800000000000065e+00 4.002959999999999852e+00 7.094809999999999839e+00 6.709990000000000343e+00 3.897479999999999833e+00 5.878809999999999647e+00 2.608610000000000095e+00 1.939799999999999969e+00 2.855967000000000056e+01 7.855249999999999844e+00 2.007130000000000081e+00 2.094129999999999825e+00 8.739000000000000101e-01 4.149800000000000155e-01 7.342450000000000365e+00 4.736900000000000333e+00 1.978499999999999925e+00 3.754779999999999784e+00 7.021500000000000519e-01 3.132979999999999876e+00 2.727287000000000106e+01 5.126579999999999693e+00 2.885380000000000056e+00 2.873856999999999928e+01 6.601759999999999629e+00 6.083630000000000315e+00 7.557920000000000194e+00 3.186669999999999892e+00 6.164480000000000182e+00 7.995779999999999887e+00 2.209439999999999849e+00 3.090500000000000025e+00 2.086840000000000028e+00 6.256370000000000431e+00 3.998180000000000067e+00 3.389450000000000074e+00 2.884959999999999969e+00 6.668110000000000426e+00 2.755706999999999951e+01 6.773229999999999862e+00 8.369000000000000050e-02 2.816187000000000040e+01 3.519599999999999951e-01 2.950899999999999856e+00 7.877150000000000318e+00 4.624019999999999797e+00 2.282300000000000217e+00 6.864379999999999704e+00 3.588210000000000122e+00 6.200599999999999667e+00 2.845410000000000217e+00 6.302430000000000199e+00 6.810469999999999580e+00 3.393429999999999946e+00
4.589070000000000427e+00 7.095390000000000086e+00 2.802177999999999969e+01 2.134479999999999933e+00 5.215449999999999697e+00 2.775517999999999930e+01 7.782060000000000421e+00 5.579800000000000315e-01 5.086000000000000298e+00 3.399529999999999941e+00 7.426599999999999868e-01 6.340910000000000046e+00 5.044100000000000250e+00 4.294920000000000293e+00 1.647699999999999942e+00 1.538119999999999932e+00 1.826119999999999965e+00 1.742129999999999956e+00 6.305600000000000094e+00 4.414889999999999759e+00 6.256429999999999936e+00 1.405729999999999924e+00 4.886420000000000208e+00 6.372860000000000191e+00 8.437900000000000400e-01 2.959239999999999871e+00 2.821117999999999881e+01 3.749130000000000074e+00 6.427299999999999791e+00 2.575947999999999993e+01 3.878499999999999837e+00 5.603290000000000326e+00 7.494570000000000398e+00 6.457600000000000229e+00 5.777849999999999930e+00 3.837540000000000173e+00 4.196399999999999686e+00 1.806789999999999896e+00 1.815660000000000052e+00 1.698180000000000023e+00 6.779550000000000409e+00 4.295219999999999594e+00 2.473339999999999872e+00 5.238749999999999574e+00 1.131289999999999907e+00 6.628400000000000070e+00 5.887739999999999974e+00 2.806678000000000139e+01 1.027949999999999919e+00 2.113949999999999996e+00 7.166699999999999626e+00 7.937310000000000088e+00 6.125499999999999723e+00 7.622720000000000162e+00 5.904230000000000089e+00 1.621550000000000047e+00 6.710890000000000022e+00 7.772990000000000066e+00 2.324549999999999894e+00 3.122580000000000133e+00
1.698649999999999993e+00 2.965570000000000039e+00 2.676270999999999844e+01 5.566499999999999559e+00 3.223730000000000206e+00 2.565791000000000111e+01 1.166570000000000107e+00 4.080339999999999634e+00 3.006229999999999958e+00 7.283660000000000245e+00 8.149499999999999522e-01 7.010800000000000365e-01 2.146259999999999835e+00 1.963700000000000001e+00 6.384409999999999918e+00 5.891869999999999941e+00 1.651310000000000056e+00 6.556560000000000166e+00 4.310850000000000293e+00 4.814250000000000362e+00 6.561139999999999972e+00 3.758319999999999883e+00 2.112540000000000084e+00 2.599110000000000031e+00 3.113230000000000164e+00 3.737330000000000041e+00 2.470910999999999902e+01 -9.726999999999999535e-02 1.711289999999999978e+00 2.509741000000000000e+01 4.677270000000000039e+00 5.146699999999999608e-01 5.622099999999999875e-01 3.515620000000000189e+00 4.499369999999999870e+00 1.512580000000000036e+00 1.008180000000000076e+00 1.256140000000000034e+00 3.035400000000000098e+00 3.967070000000000096e+00 6.646800000000000486e-01 5.066370000000000040e+00 7.251149999999999984e+00 6.112330000000000041e+00 3.796120000000000161e+00 7.446329999999999671e+00 4.491319999999999979e+00 3.316000000000000059e-01 6.236089999999999911e+00 3.578949999999999854e+00 4.819670000000000343e+00 1.673499999999999988e-01 1.038580000000000059e+00 8.046260000000000190e+00 4.212880000000000180e+00 2.851929999999999854e+00 8.193690000000000140e+00 1.574130000000000029e+00 4.353270000000000195e+00 5.766420000000000101e+00
2.262199999999999989e+00 3.608379999999999921e+00 2.714551000000000158e+01 5.549540000000000362e+00 2.611279999999999824e+00 2.660441000000000145e+01 4.696199999999999819e-01 4.304160000000000430e+00 2.689280000000000115e+00 7.240199999999999747e+00 5.526299999999999546e-01 6.332499999999999796e-01 2.395399999999999974e+00 2.014689999999999870e+00 6.781200000000000117e+00 6.567680000000000184e+00 1.032159999999999966e+00 5.965329999999999799e+00 3.984020000000000117e+00 4.793630000000000280e+00 6.344560000000000421e+00 4.035829999999999806e+00 2.602520000000000167e+00 3.341569999999999929e+00 4.202289999999999637e+00 4.063069999999999737e+00 2.484851000000000099e+01 2.070099999999999996e-01 1.292659999999999920e+00 2.586580999999999975e+01 4.770559999999999690e+00 9.727400000000000491e-01 7.369499999999999940e-01 3.067439999999999944e+00 5.062140000000000306e+00 2.263729999999999798e+00 7.751700000000000257e-01 1.859210000000000029e+00 2.322729999999999961e+00 3.970470000000000166e+00 5.017300000000000093e-01 5.405700000000000394e+00 7.261879999999999669e+00 1.843500000000000139e-01 3.688619999999999788e+00 7.695450000000000124e+00 4.713589999999999947e+00 2.186599999999999933e-01 5.747910000000000075e+00 3.367360000000000131e+00 4.829189999999999650e+00 2.841500000000000137e-01 3.211700000000000110e-01 7.782639999999999780e+00 4.394339999999999691e+00 2.859220000000000095e+00 8.103369999999999962e+00 8.636500000000000288e-01 3.881930000000000103e+00 5.693010000000000126e+00
2.888230000000000075e+00 4.022240000000000038e+00 2.525913999999999859e+01 5.296579999999999622e+00 2.686329999999999885e+00 9.985369999999999635e+00 3.065609999999999946e+00 6.771099999999999897e-01 2.418243999999999971e+01 6.923759999999999692e+00 6.095930000000000071e+00 8.838029999999999831e+00 5.452500000000000124e-01 5.133270000000000444e+00 2.812284000000000006e+01 7.589159999999999684e+00 1.857760000000000078e+00 2.667884000000000100e+01 2.524020000000000152e+00 4.556169999999999831e+00 8.173249999999999460e+00 8.112170000000000769e+00 2.704209999999999781e+00 1.072373999999999938e+01 1.191580000000000084e+00 2.507359999999999811e+00 2.439214000000000127e+01 3.788120000000000154e+00 5.451450000000000351e+00 2.309174000000000149e+01 2.603169999999999984e+00 3.459119999999999973e+00 1.070514000000000010e+01 6.190080000000000027e+00 4.906990000000000407e+00 1.106453999999999915e+01 1.796300000000000119e-01 4.947739999999999583e+00 7.117250000000000298e+00 5.169649999999999856e+00 2.227399999999999824e+00 2.503284000000000020e+01 7.559420000000000250e+00 6.156530000000000058e+00 2.604004000000000119e+01 1.094799999999999940e-01 2.703679999999999861e+00 2.878704000000000107e+01 3.222020000000000106e+00 5.157770000000000188e+00 2.750374000000000052e+01 6.955599999999999561e+00 6.395300000000000429e-01 1.172763999999999918e+01 7.126590000000000202e+00 1.955459999999999976e+00 8.166949999999999932e+00 5.188369999999999926e+00 4.137590000000000323e+00 7.537169999999999703e+00
1.662849999999999939e+00 1.678930000000000033e+00 4.890290000000000248e+00 5.173900000000000166e-01 3.715129999999999821e+00 1.939159999999999995e+00 4.748990000000000045e+00 7.799719999999999764e+00 5.903200000000000003e+00 8.529439999999999245e+00 1.492879999999999985e+00 4.431739999999999569e+00 5.617499999999999716e+00 3.469609999999999861e+00 5.934330000000000105e+00 5.438800000000000301e-01 7.743109999999999715e+00 1.954260000000000108e+00 7.030809999999999782e+00 5.017520000000000202e+00 3.114079999999999959e+00 3.078640000000000043e+00 5.449910000000000032e+00 3.868189999999999795e+00 2.300469999999999793e+00 5.856200000000000294e+00 1.645310000000000050e+00 3.321429999999999882e+00 1.599639999999999951e+00 6.914299999999999891e+00 5.029600000000000293e+00 3.468859999999999832e+00 3.135800000000000143e+00 8.832720000000000127e+00 1.279050000000000020e+00 1.732059999999999933e+00 7.175089999999999968e+00 9.964300000000000379e-01 6.620989999999999931e+00 5.510510000000000019e+00 7.262260000000000382e+00 3.494679999999999787e+00 3.642510000000000137e+00 5.447910000000000252e+00 6.427229999999999777e+00 2.296559999999999935e+00 1.765439999999999898e+00 1.947060000000000013e+00 8.801170000000000826e+00 5.894459999999999589e+00 1.432690000000000019e+00 8.170149999999999579e+00 4.909189999999999721e+00 5.345480000000000231e+00 1.328000000000000014e-01 7.864519999999999733e+00 4.955779999999999852e+00 3.428999999999999826e-01 4.089520000000000266e+00 5.129570000000000185e+00
8.320209999999999440e+00 4.285459999999999603e+00 3.469300000000000161e-01 1.852230000000000043e+00 3.705080000000000151e+00 3.912809999999999899e+00 3.506130000000000191e+00 4.604219999999999757e+00 3.355000000000000204e-01 5.103970000000000340e+00 1.119609999999999994e+00 2.194589999999999819e+00 1.641599999999999948e+00 8.466200000000000392e-01 2.083399999999999974e-01 6.461899999999999977e+00 4.210930000000000284e+00 6.652779999999999916e+00 3.767499999999999738e-01 1.190860000000000030e+00 6.036669999999999980e+00 4.557879999999999932e+00 8.682900000000000063e-01 6.742499999999999716e+00 7.700160000000000338e+00 6.382200000000000095e+00 2.946950999999999965e+01 1.749900000000000011e+00 5.772339999999999804e+00 2.061280000000000001e+00 2.794140000000000068e+00 1.748820000000000041e+00 2.464449999999999807e+00 6.694989999999999775e+00 6.812969999999999970e+00 7.218969999999999665e+00 5.848989999999999689e+00 3.430260000000000087e+00 4.707200000000000273e-01 4.719389999999999752e+00 2.809340000000000170e+00 8.375819999999999155e+00 3.949329999999999785e+00 6.573100000000000165e+00 2.943620999999999910e+01 5.812140000000000306e+00 2.474689999999999834e+00 4.862680000000000113e+00 2.435509999999999842e+00 6.752089999999999925e+00 5.992609999999999992e+00 1.266229999999999967e+00 3.657309999999999839e+00 6.394420000000000215e+00 7.471070000000000100e+00 1.010429999999999939e+00 3.806919999999999860e+00 1.525099999999999900e+00 2.839290000000000092e+00 2.850940999999999903e+01
6.066899999999999515e-01 5.737870000000000026e+00 9.993400000000000061e-01 5.412209999999999965e+00 6.070289999999999964e+00 1.411489999999999911e+00 7.654670000000000307e+00 2.567149999999999821e+00 4.885279999999999845e+00 3.907630000000000159e+00 4.370379999999999932e+00 4.868019999999999570e+00 7.530850000000000044e+00 1.764150000000000107e+00 3.150985999999999976e+01 3.261010000000000186e+00 2.449720000000000120e+00 1.348729999999999984e+00 6.306790000000000340e+00 8.655000000000000193e-02 6.919229999999999769e+00 9.800999999999999712e-01 6.916739999999999888e+00 7.242840000000000167e+00 7.588049999999999962e+00 5.917150000000000354e+00 3.103216000000000108e+01 1.351809999999999956e+00 2.973030000000000062e+00 3.109725999999999857e+01 3.740979999999999972e+00 6.171719999999999651e+00 7.308740000000000236e+00 7.836899999999999977e+00 6.683709999999999596e+00 9.124900000000000233e+00 7.588779999999999859e+00 1.195389999999999953e+00 2.598390000000000200e+00 5.589269999999999960e+00 5.819960000000000022e+00 3.962990000000000013e+00 5.191779999999999617e+00 2.907300000000000217e+00 3.128925999999999874e+01 2.934989999999999988e+00 -4.579999999999999870e-03 9.638400000000000301e-01 5.557380000000000209e+00 2.452430000000000110e+00 6.580370000000000275e+00 1.290140000000000065e+00 2.492780000000000218e+00 6.238240000000000229e+00 2.115089999999999915e+00 3.924570000000000114e+00 3.146220000000000017e+00 8.170210000000000861e+00 5.435889999999999667e+00 4.569320000000000270e+00
3.132249999999999979e+00 6.694219999999999615e+00 3.327129999999999921e+00 8.879350000000000520e+00 1.590559999999999974e+00 1.793840000000000101e+00 2.835799999999999987e-01 5.417419999999999902e+00 1.696989999999999998e+00 9.484700000000000353e-01 2.848360000000000003e+00 4.768959999999999866e+00 8.123549999999999827e+00 1.024049999999999905e+00 6.988179999999999836e+00 7.248490000000000322e+00 6.239200000000000301e+00 3.364009999999999945e+00 5.025489999999999569e+00 7.680299999999999905e+00 6.064189999999999969e+00 4.487250000000000405e+00 3.379490000000000105e+00 4.268869999999999720e+00 9.345140000000000668e+00 3.362620000000000164e+00 3.327899999999999747e-01 2.539590000000000014e+00 6.099490000000000300e+00 8.573899999999999855e-01 4.822560000000000180e+00 2.121249999999999858e+00 6.906579999999999941e+00 9.311949999999999505e+00 7.714600000000000346e-01 4.198680000000000412e+00 9.866260000000000474e+00 3.065850000000000186e+00 7.361839999999999939e+00 5.459710000000000285e+00 6.973999999999999644e-02 3.387049999999999894e+00 3.522009999999999863e+00 5.798110000000000319e+00 5.709019999999999762e+00 6.071810000000000151e+00 3.705449999999999910e+00 2.761589999999999989e+00 9.766329999999999956e+00 5.444370000000000154e+00 4.370599999999999596e+00 7.290119999999999933e+00 6.546389999999999709e+00 7.086800000000000210e+00 2.917139999999999844e+00 2.296559999999999935e+00 2.787939999999999863e+00 8.063950000000000173e+00 7.144700000000000273e+00 1.034289999999999932e+00
7.887139999999999596e+00 6.652599999999999625e+00 1.466560000000000086e+00 4.078369999999999607e+00 6.423790000000000333e+00 1.074249999999999927e+00 5.713000000000000023e-02 3.766849999999999810e+00 5.180790000000000006e+00 4.056840000000000224e+00 3.153760000000000119e+00 5.193410000000000082e+00 6.158979999999999677e+00 2.999550000000000161e+00 1.673710000000000031e+00 1.525290000000000035e+00 2.634580000000000144e+00 1.275239999999999929e+00 5.666150000000000020e+00 6.750060000000000393e+00 5.595150000000000290e+00 1.890370000000000106e+00 6.744699999999999918e+00 6.003969999999999807e+00 6.271950000000000358e+00 3.430000000000000271e-01 3.118887000000000143e+01 8.200100000000000833e+00 3.895550000000000068e+00 4.523800000000000043e-01 4.065780000000000172e+00 5.877049999999999663e+00 7.160070000000000157e+00 8.289389999999999148e+00 5.687090000000000423e+00 7.169100000000000250e+00 4.525600000000000178e-01 1.475889999999999924e+00 3.069449999999999790e+00 6.386849999999999916e+00 5.544260000000000410e+00 3.261169999999999902e+00 3.966790000000000038e+00 3.959189999999999987e+00 7.447899999999999521e-01 1.841669999999999918e+00 -3.988700000000000023e-01 3.100686999999999927e+01 6.478480000000000238e+00 2.143639999999999990e+00 6.475929999999999964e+00 2.089440000000000186e+00 2.118189999999999795e+00 6.785639999999999894e+00 4.714170000000000194e+00 8.583399999999999919e-01 3.195739999999999803e+00 2.198500000000000121e+00 4.945269999999999833e+00 4.221490000000000187e+00
1.781400000000000095e+00 1.758480000000000043e+00 4.846099999999999852e+00 4.083100000000000063e-01 3.955880000000000063e+00 1.989489999999999981e+00 4.673569999999999780e+00 8.033060000000000755e+00 5.929219999999999935e+00 8.510780000000000456e+00 1.600540000000000074e+00 4.493890000000000384e+00 5.767269999999999897e+00 3.395070000000000032e+00 5.953479999999999883e+00 3.381799999999999806e-01 7.973200000000000287e+00 2.115769999999999929e+00 7.064160000000000217e+00 5.048709999999999809e+00 3.215590000000000170e+00 3.279150000000000009e+00 5.420320000000000249e+00 3.957730000000000192e+00 2.545720000000000205e+00 5.933919999999999639e+00 1.546340000000000048e+00 3.235739999999999839e+00 1.569229999999999903e+00 7.044769999999999754e+00 4.900540000000000340e+00 3.483460000000000001e+00 3.279450000000000198e+00 8.755959999999999965e+00 1.255980000000000096e+00 1.854780000000000095e+00 7.470900000000000318e+00 9.404099999999999682e-01 6.644870000000000054e+00 5.656489999999999796e+00 7.331050000000000288e+00 3.467039999999999900e+00 3.876679999999999904e+00 5.382390000000000008e+00 6.444060000000000343e+00 2.344219999999999970e+00 1.797520000000000007e+00 1.786280000000000090e+00 8.810169999999999391e+00 5.685190000000000410e+00 1.388120000000000021e+00 8.233470000000000510e+00 4.978200000000000180e+00 5.622630000000000017e+00 -1.914000000000000076e-02 7.623319999999999652e+00 4.752679999999999794e+00 4.547800000000000176e-01 4.121260000000000367e+00 5.064799999999999969e+00
3.001399999999999846e+00 4.000740000000000407e+00 2.509253000000000000e+01 5.251039999999999708e+00 2.772749999999999826e+00 1.005513000000000012e+01 2.926909999999999901e+00 5.796400000000000441e-01 2.415512999999999977e+01 6.835219999999999629e+00 6.001380000000000159e+00 8.734349999999999170e+00 6.784000000000000030e-01 5.254389999999999894e+00 2.786633000000000138e+01 7.629629999999999690e+00 1.921079999999999899e+00 2.655792999999999893e+01 2.668210000000000193e+00 4.622650000000000148e+00 8.386939999999999173e+00 8.100529999999999120e+00 2.677210000000000090e+00 1.081253000000000064e+01 8.014700000000000157e-01 2.485990000000000144e+00 2.419893000000000072e+01 3.924129999999999896e+00 5.366939999999999600e+00 2.305182999999999893e+01 2.453759999999999941e+00 3.297200000000000131e+00 1.074783000000000044e+01 6.517159999999999620e+00 4.729260000000000019e+00 1.118703000000000003e+01 4.577499999999999902e-01 4.711730000000000196e+00 7.399149999999999672e+00 4.962839999999999918e+00 2.239030000000000076e+00 2.473843000000000103e+01 7.615879999999999761e+00 6.151290000000000369e+00 2.589083000000000112e+01 2.939399999999999791e-01 2.832269999999999843e+00 2.269200000000000106e-01 2.872780000000000111e+00 5.329419999999999824e+00 2.734543000000000035e+01 6.621690000000000076e+00 6.042199999999999793e-01 1.148982999999999954e+01 7.123319999999999652e+00 1.806000000000000050e+00 8.196979999999999933e+00 5.235400000000000276e+00 4.400070000000000370e+00 7.514339999999999797e+00
2.134180000000000188e+00 5.021700000000000053e+00 9.746299999999999963e-01 6.043190000000000062e+00 5.429249999999999687e+00 1.446520000000000028e+00 5.660949999999999704e+00 2.810569999999999791e+00 5.589680000000000426e+00 1.445610000000000062e+00 2.942740000000000133e+00 4.396860000000000213e+00 2.046699999999999908e-01 1.891010000000000080e+00 2.482800000000000007e-01 3.554489999999999927e+00 1.327849999999999975e+00 1.890479999999999938e+00 4.029010000000000424e+00 5.835820000000000007e+00 5.091700000000000337e+00 7.786979999999999791e+00 6.265990000000000393e+00 7.069779999999999731e+00 6.192870000000000097e+00 2.849769999999999914e+00 5.486900000000000110e-01 2.949689999999999923e+00 2.853940000000000143e+00 2.914639000000000024e+01 2.043449999999999989e+00 4.684560000000000279e+00 6.672030000000000349e+00 5.414670000000000094e+00 5.177260000000000417e+00 7.157409999999999606e+00 1.536650000000000071e+00 3.913800000000000057e-01 3.343760000000000066e+00 5.419800000000000395e+00 2.242999999999999994e-01 3.372059999999999835e+00 8.491799999999999571e+00 6.214240000000000208e+00 2.916538999999999859e+01 4.226910000000000167e+00 6.099070000000000213e+00 2.936218999999999824e+01 3.611299999999999955e+00 1.577620000000000022e+00 6.352199999999999847e+00 7.800200000000000244e+00 2.068919999999999870e+00 6.564000000000000057e+00 4.578850000000000087e+00 3.872310000000000141e+00 3.385619999999999852e+00 6.141299999999999537e-01 4.659119999999999706e+00 2.875389999999999890e+00
3.877050000000000107e+00 3.464069999999999983e+00 2.128480000000000061e+01 4.050919999999999632e+00 5.639439999999999564e+00 1.425210000000000043e+01 6.610949999999999882e+00 1.068400000000000044e-01 1.879339999999999833e+01 7.949139999999999873e+00 5.396399999999999864e+00 1.554240000000000066e+01 1.746059999999999945e+00 1.831599999999999895e-01 1.995880000000000010e+01 4.678200000000000136e-01 3.307889999999999997e+00 2.171509999999999962e+01 6.490409999999999791e+00 2.111250000000000071e+00 1.272690000000000055e+01 2.893639999999999990e+00 2.916110000000000202e+00 1.338010000000000055e+01 5.704100000000000392e+00 5.021770000000000067e+00 1.685529999999999973e+01 4.342229999999999812e+00 7.790200000000000458e-01 2.012430000000000163e+01 6.459799999999999986e-01 6.776499999999999746e-01 1.775140000000000029e+01 5.238529999999999909e+00 1.080119999999999969e+00 1.505530000000000079e+01 1.486200000000000021e-01 5.252880000000000216e+00 1.302679999999999971e+01 6.176669999999999661e+00 4.346260000000000012e+00 2.090319999999999823e+01 1.156200000000000006e-01 7.571400000000000352e-01 2.150819999999999865e+01 1.834359999999999991e+00 4.192029999999999923e+00 1.962950000000000017e+01 2.504430000000000156e+00 4.166920000000000179e+00 2.319780000000000086e+01 2.450720000000000010e+00 4.175449999999999662e+00 1.589199999999999946e+01 1.283209999999999962e+00 9.385900000000000354e-01 1.258689999999999998e+01 4.756020000000000358e+00 4.401839999999999975e+00 1.200140000000000029e+01
2.994559999999999889e+00 2.261200000000000099e+00 9.923100000000000254e-01 7.171020000000000394e+00 1.845409999999999995e+00 8.382800000000000251e-01 4.777969999999999828e+00 7.366700000000000470e-01 4.495269999999999655e+00 1.800499999999999878e-01 2.242399999999999949e-01 4.797740000000000116e+00 6.574699999999999989e-01 5.929499999999999993e+00 5.150200000000000333e-01 6.604210000000000136e+00 5.164880000000000138e+00 2.247930000000000206e+00 5.504970000000000141e+00 5.358900000000000219e+00 6.629360000000000142e+00 7.598440000000000083e+00 2.249330000000000052e+00 7.343169999999999753e+00 7.394110000000000404e+00 7.173869999999999969e+00 3.094369999999999976e+01 3.578539999999999832e+00 7.346449999999999925e+00 3.127530000000000143e+01 9.714199999999999502e-01 1.078079999999999927e+00 7.120940000000000047e+00 4.539240000000000386e+00 3.421289999999999942e+00 7.481419999999999959e+00 4.396800000000000153e-01 5.098370000000000068e+00 2.919070000000000054e+00 4.574729999999999741e+00 5.288850000000000051e+00 4.083020000000000316e+00 6.400099999999999678e-01 3.019480000000000164e+00 2.093500000000000083e-01 5.440599999999999881e+00 3.660779999999999923e+00 4.715599999999999792e-01 5.292570000000000441e+00 9.715300000000000047e-01 6.947530000000000427e+00 8.146660000000000679e+00 4.730150000000000077e+00 6.425060000000000215e+00 2.493599999999999817e+00 1.721970000000000001e+00 3.594450000000000145e+00 7.086549999999999905e+00 1.610379999999999923e+00 3.484620000000000051e+00