-6.590380460999999457e+01
-6.831292125000000226e+01
-6.573371127999999430e+01
-6.631295518999999672e+01
-6.555805802000000426e+01
-6.651162195000000565e+01
-6.617038365999999883e+01
-6.499158196000000487e+01
-6.549066279000000179e+01
-6.723837722000000383e+01
-6.630939207999999496e+01
-6.559615444000000650e+01
-6.653567144000000155e+01
-6.779431954000000360e+01
-6.715408693999999912e+01
-6.514500941000000012e+01
-6.752315129000000127e+01
-6.595712317999999641e+01
-6.746476035000000593e+01
-6.582132321999999647e+01
-6.550528937999999357e+01
-6.716940474000000449e+01
-6.640390068000000667e+01
-6.766403966999999398e+01
-6.619099199000000056e+01
-6.537747810000000470e+01
-6.655563116000000434e+01
-6.630160322000000406e+01
-6.641419279999999503e+01
-6.695310510000000193e+01
-6.520445773000000145e+01
-6.606271660999999540e+01
-6.629756240999999761e+01
-6.615798460000000603e+01
-6.948119889000000171e+01
-6.858367542000000583e+01
-6.733120130999999731e+01
-6.747081636999999432e+01
-6.578781453999999940e+01
-6.788273562000000538e+01
-6.753504359000000079e+01
-6.532757379000000242e+01
-6.717207295000000045e+01
-6.829459547000000441e+01
-6.489093635000000404e+01
-6.736562078999999414e+01
-6.592166976999999406e+01
-6.654084844999999859e+01
-6.651604256999999620e+01
-6.670105590000000007e+01
-6.607905486999999312e+01
-6.633254485999999872e+01
-6.874477851000000328e+01
-6.855946176999999864e+01
-6.658785435000000064e+01
-6.801732843000000628e+01
-6.727347914000000628e+01
-6.688383683000000701e+01
-6.763614981999999998e+01
-6.676201641999999481e+01
-6.453904224999999428e+01
-6.574852291999999920e+01
-6.536954781000000025e+01
-6.828148493000000485e+01
-6.749865436999999702e+01
-6.672682208000000514e+01
-6.788658934000000045e+01
-6.543462667999999383e+01
-6.593959992999999997e+01
-6.561708323000000576e+01
-7.006459979999999632e+01
-6.708530222000000265e+01
-6.760619411000000412e+01
-6.503770613000000367e+01
-6.665368462000000704e+01
-6.588897335999999427e+01
-6.759668476999999598e+01
-6.529497693999999797e+01
-6.583830919000000392e+01
-6.652479958000000693e+01
-6.843864161000000479e+01
-6.611636326999999369e+01
-6.547585748000000194e+01
-6.752956484999999986e+01
-6.738471860999999308e+01
-6.848821963999999696e+01
-6.518567396000000258e+01
-6.573701504999999656e+01
-6.730199478999999485e+01
-6.617310940999999502e+01
-6.688245569999999418e+01
-6.688845229999999731e+01
-6.638234013999999661e+01
-6.656702962999999329e+01
-6.403413838000000169e+01
-6.587492973000000518e+01
-6.561931909000000473e+01
-6.524331080999999699e+01
-6.724194873000000428e+01
-6.805481181000000390e+01
-6.573484938000000000e+01
-6.847033159000000069e+01
-6.754070081000000414e+01
-6.775374345000000176e+01
-6.609271327000000440e+01
-6.744393345999999667e+01
-6.630300868999999864e+01
-6.603709865999999806e+01
-6.825052800999999647e+01
-6.632133985000000109e+01
-6.614581511000000091e+01
-6.824312745999999663e+01
-6.723368990999999539e+01
-6.640297533999999757e+01
-6.649030449999999348e+01
-6.635269474000000400e+01
-6.466572300999999356e+01
-6.585784614000000659e+01
-6.895972600000000341e+01
-6.549010217999999384e+01
-6.828416889999999739e+01
-6.668302787999999737e+01
-6.736645660000000646e+01
-6.770897992000000443e+01
-6.646905666000000679e+01
-6.570826343999999608e+01
-6.696482192999999938e+01
-6.788785389000000237e+01
-6.646216398999999342e+01
-6.664552729999999769e+01
-6.695504857999999615e+01
-6.819138796000000013e+01
-6.763081511000000035e+01
-6.400182773999999597e+01
-6.590817110999999784e+01
-6.710440599000000361e+01
-6.500109822000000293e+01
-6.772564336000000651e+01
-6.792708761000000095e+01
-6.511016462000000615e+01
-6.629489420999999538e+01
-6.674861868000000698e+01
-6.632922580000000323e+01
-6.476751495000000602e+01
-6.614339658000000099e+01
-6.627778897000000313e+01
-6.970632378000000529e+01
-6.487923308000000588e+01
-6.644551103999999953e+01
-6.551874257999999429e+01
-6.706398595999999657e+01
-6.491530672999999751e+01
-6.666155659999999727e+01
-6.585979398000000629e+01
-6.770012133999999548e+01
-6.622514821000000040e+01
-6.514936672000000328e+01
-6.765529802999999731e+01
-6.708276598000000490e+01
-6.732426515999999594e+01
-6.543213991999999735e+01
-6.759732022999999401e+01
-6.697463810000000706e+01
-6.607006406000000709e+01
-6.708610276000000283e+01
-6.696474383999999702e+01
-6.714994165999999609e+01
-6.509786400000000128e+01
-6.597782818999999677e+01
-6.687448148000000003e+01
-6.634959643000000540e+01
-6.724717870000000630e+01
-6.687223701000000631e+01
-6.558474209999999971e+01
-6.617650625999999647e+01
-6.692304878999999573e+01
-6.476937700999999947e+01
-6.577476348000000428e+01
-6.523226450999999315e+01
-6.474970290999999634e+01
-6.756518708999999490e+01
-6.662675692000000538e+01
-6.676591793000000052e+01
-6.761069129000000544e+01
-6.707359126999999432e+01
-6.858607309999999302e+01
-6.806062638000000220e+01
-6.690917371999999830e+01
-6.669505700999999931e+01
-6.730081303999999420e+01
-6.431642383999999879e+01
-6.798224670999999830e+01
-6.508035825999999702e+01
-6.674668957999999463e+01
-6.645717756999999892e+01
-6.760492374000000382e+01
-6.640877785000000699e+01
-6.704724075000000028e+01
-6.593092946999999526e+01
-6.646753307999999549e+01
-6.617682232999999314e+01
-6.497720649000000037e+01
