-6.781347314999999298e+01
-6.869446686000000568e+01
-6.562727288000000669e+01
-6.658482540999999344e+01
-6.596367191999999591e+01
-6.682348545000000684e+01
-6.615761845999999480e+01
-6.721358779000000538e+01
-6.623917396000000224e+01
-6.672360727999999597e+01
-6.684179469999999412e+01
-6.512782047999999691e+01
-6.730155028000000073e+01
-6.609979237999999668e+01
-6.688509177999999622e+01
-6.767565818999999294e+01
-6.598399763999999834e+01
-6.560244278999999779e+01
-6.555397514999999942e+01
-6.705107096999999783e+01
-6.533459376000000418e+01
-6.709430005000000108e+01
-6.662026505000000043e+01
-6.829503176000000053e+01
-6.679645895999999539e+01
-6.625415465000000381e+01
-6.291747923999999870e+01
-6.602755833999999879e+01
-6.673250547000000665e+01
-6.523379993000000354e+01
-6.659651857999999436e+01
-6.531606628999999486e+01
-6.590769905999999878e+01
-6.697360299000000339e+01
-6.535118988000000684e+01
-6.692020490999999538e+01
-6.754098007000000337e+01
-6.724577451999999766e+01
-6.546597662000000639e+01
-6.718088631000000532e+01
-6.488415888000000109e+01
-6.513590034000000628e+01
-6.654977390000000526e+01
-6.801589101000000426e+01
-6.544260296000000210e+01
-6.585714778000000535e+01
-6.828154277000000150e+01
-6.562358335000000409e+01
-6.692036828000000526e+01
-6.659352977000000351e+01
-6.593692403999999385e+01
-6.589744444999999473e+01
-6.496229519000000607e+01
-6.595564588999999955e+01
-6.641095464999999365e+01
-6.529054204000000539e+01
-6.455968239000000608e+01
-6.883405530999999655e+01
-6.808483843000000491e+01
-6.494907693999999765e+01
-6.755789006999999913e+01
-6.712644262999999967e+01
-6.553356005000000550e+01
-6.564218562000000645e+01
-6.392371989000000099e+01
-6.443965323999999839e+01
-6.442011761999999919e+01
-6.783903619999999535e+01
-6.609975305999999762e+01
-6.671543393000000322e+01
-6.502432136000000185e+01
-6.505542420999999820e+01
-6.703759766000000297e+01
-6.717516501999999434e+01
-6.771723629000000244e+01
-6.490328494999999975e+01
-6.696401305999999920e+01
-6.790560892999999965e+01
-6.857387472000000628e+01
-6.578055781000000479e+01
-6.814137712000000136e+01
-6.850419343999999455e+01
-6.556388957000000062e+01
-6.599912885999999901e+01
-6.600979209000000481e+01
-6.697628822000000071e+01
-6.566907534999999996e+01
-6.738061231000000362e+01
-6.711564615000000344e+01
-6.552809492000000091e+01
-6.745232866000000627e+01
-6.720005505999999684e+01
-6.522917454999999620e+01
-6.753005584999999655e+01
-6.579386094000000185e+01
-6.549712868999999671e+01
-6.753763990000000206e+01
-6.819751218000000392e+01
-6.637322964999999897e+01
-6.730476394000000084e+01
