-2.641720000000000179e-01 -7.827279999999999793e-01 6.380730000000000013e-01 7.517350000000000421e-01 1.247735999999999956e+00 -1.354545000000000110e+00 -4.459380000000000011e-01 -9.500300000000000411e-01 6.541430000000000300e-01 1.507660000000000111e-01 -2.081590000000000107e-01 -8.422999999999999932e-03 4.759829999999999894e-01 8.469700000000000006e-01 1.051952999999999916e+00 1.512232999999999938e+00 -3.667500000000000204e-01 -7.406230000000000313e-01 -1.439057000000000031e+00 -1.589540000000000119e-01 -4.463559999999999750e-01 -1.924855999999999900e+00 -1.872514999999999930e+00 3.745049999999999768e-01 5.151399999999999729e-02 -1.957359999999999933e-01 4.590899999999999842e-02 -1.228390000000000037e-01 3.384599999999999831e-01 -1.795301999999999953e+00 -1.062697000000000003e+00 -4.141900000000000026e-01 2.177739999999999954e-01 -9.760299999999999532e-02 7.491759999999999531e-01 3.603770000000000029e-01 2.220439999999999914e-01 9.129840000000000177e-01 6.806910000000000460e-01 -3.695640000000000036e-01 -6.453100000000000502e-02 -7.496500000000000385e-02 7.978539999999999521e-01 -3.804080000000000239e-01 1.299873000000000056e+00 1.863332999999999906e+00 8.293460000000000276e-01 -4.976209999999999800e-01 5.335000000000000159e-02 -6.340379999999999905e-01 -9.811499999999999388e-02 -6.698979999999999935e-01 1.262237000000000053e+00 2.984099999999999947e-02 5.275870000000000282e-01 -2.297109999999999985e-01 -1.787360000000000060e-01 -9.773000000000000437e-03 7.084000000000000019e-02 -1.584540000000000115e-01
9.195149999999999713e-01 -1.564896999999999982e+00 -9.046079999999999677e-01 1.016279999999999961e-01 1.811869999999999870e-01 2.442930000000000101e-01 2.727310000000000012e-01 9.428269999999999706e-01 -1.213729999999999948e-01 7.856830000000000203e-01 2.815300000000000025e-01 -2.119729999999999948e-01 6.399249999999999661e-01 -6.583529999999999660e-01 6.445399999999999741e-02 -2.858930000000000082e-01 1.262806000000000095e+00 -3.038429999999999742e-01 4.513099999999999751e-02 5.341000000000000192e-01 -1.459411000000000014e+00 -3.829790000000000139e-01 1.125963000000000047e+00 8.314749999999999641e-01 -8.777859999999999552e-01 -2.622550000000000159e-01 6.460599999999999676e-02 -4.893440000000000012e-01 5.565909999999999469e-01 4.289390000000000147e-01 8.611000000000000598e-03 1.656060000000000032e-01 3.824679999999999747e-01 -1.203889999999999960e-01 -7.268199999999999661e-02 -3.400299999999999850e-02 -1.322127999999999970e+00 -9.131489999999999885e-01 -7.163600000000000523e-02 -1.827200000000000005e-02 -5.914270000000000360e-01 3.515150000000000219e-01 3.584100000000000064e-01 -4.658300000000000218e-01 -1.694309999999999983e-01 1.673240000000000005e-01 4.787279999999999869e-01 -1.335928000000000004e+00 1.383200000000000054e-02 2.456220000000000070e-01 -3.786519999999999886e-01 2.994000000000000133e-02 -1.032224999999999948e+00 1.109806999999999988e+00 1.165839999999999932e-01 8.055179999999999563e-01 9.792539999999999578e-01 3.747799999999999743e-02 -1.019660000000000011e+00 5.340470000000000494e-01
1.080155999999999894e+00 -4.345840000000000258e-01 -7.068649999999999656e-01 -4.177000000000000157e-02 1.559069000000000038e+00 3.232700000000000018e-01 -2.464079999999999881e-01 -1.543120000000000047e-01 -5.728010000000000046e-01 1.098689999999999944e-01 -1.047797000000000089e+00 -8.731060000000000487e-01 -1.992213000000000012e+00 -7.369799999999999962e-02 1.155499999999999972e+00 -2.969760000000000177e-01 -9.144860000000000211e-01 1.159872000000000014e+00 -6.125030000000000197e-01 -5.336750000000000105e-01 -1.113189999999999902e+00 1.009746000000000032e+00 9.213230000000000031e-01 -2.094010000000000038e-01 4.084860000000000158e-01 -6.606099999999999473e-02 8.808820000000000539e-01 -3.134990000000000276e-01 5.566800000000000220e-02 -3.905429999999999735e-01 -7.237559999999999549e-01 2.574509999999999854e-01 4.256099999999999883e-01 -7.381560000000000343e-01 -4.995600000000000041e-02 4.300550000000000206e-01 -7.227000000000000091e-02 -4.872580000000000244e-01 7.279160000000000075e-01 -3.008179999999999743e-01 -5.165600000000000053e-02 8.397930000000000117e-01 -1.242029999999999940e-01 -2.618219999999999992e-01 -8.071960000000000246e-01 2.250827999999999829e+00 8.998319999999999652e-01 -8.626479999999999704e-01 8.534249999999999892e-01 -9.979829999999999535e-01 -2.036200000000000163e-02 3.100089999999999790e-01 4.780570000000000097e-01 -9.558699999999999974e-01 -5.280249999999999666e-01 -7.082129999999999814e-01 1.609980000000000022e-01 -3.192099999999999799e-02 1.610103000000000062e+00 4.080860000000000043e-01
-9.163580000000000059e-01 1.007368000000000041e+00 -8.396599999999999897e-02 7.084780000000000522e-01 8.558369999999999589e-01 1.028089999999999948e+00 6.119310000000000027e-01 1.885139999999999871e-01 1.961950000000000083e-01 -5.045739999999999670e-01 -9.693370000000000042e-01 6.658439999999999914e-01 2.502139999999999920e-01 -6.993430000000000479e-01 1.436544999999999961e+00 -5.326370000000000271e-01 1.672290999999999972e+00 -9.321580000000000421e-01 -6.633379999999999832e-01 -4.322079999999999811e-01 -1.106780000000000097e+00 5.962849999999999540e-01 -7.919159999999999533e-01 9.115199999999999692e-02 7.920049999999999590e-01 3.815339999999999843e-01 -4.373059999999999725e-01 -8.693319999999999936e-01 -5.402709999999999457e-01 -5.743840000000000057e-01 5.810640000000000249e-01 -1.271114000000000077e+00 -5.916099999999999831e-02 -7.687500000000000444e-01 -3.292099999999999888e-02 1.516309999999999880e-01 1.577040000000000108e-01 6.782350000000000323e-01 1.580340000000000078e-01 6.329219999999999846e-01 -1.388310000000000100e-01 -8.955490000000000395e-01 2.998799999999999799e-01 6.632000000000000117e-01 2.419449999999999934e-01 -1.008537000000000017e+00 -4.132850000000000135e-01 -4.807870000000000199e-01 1.290564999999999962e+00 -1.017147000000000023e+00 3.822070000000000189e-01 -1.503411000000000053e+00 -8.305999999999999148e-03 2.783070000000000266e-01 7.419609999999999816e-01 2.339440000000000131e-01 1.669930000000000025e-01 1.039289999999999936e-01 6.337549999999999573e-01 -2.268519999999999981e-01
-1.257516000000000078e+00 -4.353940000000000032e-01 4.137689999999999979e-01 2.197709999999999941e-01 -7.927170000000000050e-01 4.256309999999999816e-01 -6.433200000000000029e-02 -8.839979999999999505e-01 7.469369999999999621e-01 6.752400000000000069e-02 4.523670000000000191e-01 -3.559749999999999859e-01 -2.174689999999999956e-01 1.235819999999999974e-01 1.407800000000000024e-02 2.854639999999999955e-01 5.623939999999999495e-01 -1.411739999999999939e-01 5.343500000000000333e-02 -2.473100000000000021e-01 5.936099999999999710e-02 -1.202123000000000053e+00 4.823450000000000237e-01 -9.302810000000000246e-01 5.456969999999999876e-01 -5.367800000000000349e-01 3.280520000000000103e-01 -7.654929999999999790e-01 1.115731000000000028e+00 1.076880000000000059e-01 5.654420000000000002e-01 4.580040000000000222e-01 -3.346029999999999838e-01 1.515730000000000133e-01 6.542339999999999822e-01 -1.246466999999999992e+00 2.161889999999999923e-01 -7.363560000000000105e-01 1.303728999999999916e+00 -1.056610000000000049e-01 1.453230000000000077e-01 -1.350459999999999994e-01 -8.354100000000000414e-02 3.145580000000000043e-01 1.567129999999999912e-01 6.175650000000000306e-01 -2.415239999999999887e-01 2.152890000000000081e-01 7.271870000000000278e-01 -1.734150000000000136e-01 1.211340000000000056e-01 -5.270049999999999457e-01 3.282500000000000001e-02 -3.311200000000000254e-01 1.369641000000000108e+00 -1.962899999999999923e-01 3.020360000000000267e-01 -5.963500000000000467e-01 -9.757799999999999807e-02 -7.197529999999999761e-01
-2.408299999999999885e-01 -5.146539999999999448e-01 -1.815723999999999894e+00 -3.091550000000000131e-01 6.882499999999999729e-02 -2.143279999999999907e-01 -1.792179999999999884e-01 -3.799219999999999819e-01 9.217039999999999678e-01 -3.058409999999999740e-01 -7.363889999999999603e-01 1.022821999999999898e+00 1.126395999999999953e+00 -8.755760000000000209e-01 -2.379999999999999893e-01 1.265880000000000061e-01 5.117800000000000127e-01 -7.323849999999999527e-01 -5.511660000000000448e-01 -3.996000000000000107e-01 -6.157000000000000146e-03 1.361300000000000010e-02 1.843833000000000055e+00 -1.788585000000000091e+00 5.519690000000000429e-01 5.085119999999999640e-01 -1.515180000000000138e-01 2.389870000000000050e-01 6.011600000000000277e-02 -7.957599999999999396e-02 -2.651919999999999833e-01 -2.575439999999999952e-01 3.155129999999999879e-01 9.526540000000000008e-01 -2.389620000000000077e-01 1.705450000000000021e-01 -1.174577999999999900e+00 8.579870000000000552e-01 8.298500000000000321e-02 3.976740000000000275e-01 4.508999999999999814e-02 6.182170000000000165e-01 1.125349999999999961e-01 -1.898910000000000042e-01 1.468372000000000011e+00 -9.991130000000000289e-01 -1.668590000000000073e-01 -1.134750000000000064e-01 2.380619999999999958e-01 -1.276315000000000088e+00 5.248629999999999685e-01 -2.250299999999999870e-02 1.283025000000000082e+00 6.513139999999999485e-01 4.356129999999999725e-01 6.853770000000000140e-01 -4.106969999999999787e-01 -1.464969999999999883e-01 -8.288330000000000419e-01 -2.258900000000000075e-01
5.101240000000000219e-01 -3.441739999999999799e-01 -6.923500000000000487e-02 -2.143536999999999804e+00 -2.195189999999999919e-01 1.582740999999999953e+00 5.095229999999999482e-01 1.016356000000000037e+00 -1.261835000000000040e+00 9.692520000000000024e-01 -1.400720000000000021e-01 1.056824999999999903e+00 -8.837319999999999620e-01 -1.943969999999999865e-01 1.000424999999999898e+00 2.715239999999999876e-01 4.449859999999999927e-01 -8.236090000000000355e-01 -4.783020000000000049e-01 2.225570000000000048e-01 2.288389999999999869e-01 -3.746399999999999730e-01 3.762849999999999806e-01 7.923499999999999988e-01 -2.086349999999999871e-01 -4.728999999999999870e-02 -4.058970000000000078e-01 1.587560000000000082e-01 -1.562830000000000052e-01 -7.778799999999999604e-02 -8.724159999999999693e-01 9.290969999999999507e-01 -6.140510000000000135e-01 1.243799000000000099e+00 -1.207541999999999893e+00 -7.945130000000000248e-01 1.120160000000000045e+00 -4.638950000000000018e-01 -8.340400000000000591e-02 -6.462700000000000389e-02 3.899999999999999929e-05 -7.610000000000000098e-01 2.641439999999999899e-01 -1.269840000000000135e-01 1.457824999999999926e+00 5.622019999999999795e-01 -1.324999999999999963e-02 -1.008761000000000019e+00 -2.092749999999999888e-01 2.159770000000000023e-01 -1.034830000000000055e-01 -7.631050000000000333e-01 -2.752220000000000222e-01 -5.020499999999999963e-02 3.871900000000000341e-02 -1.309269999999999878e-01 8.974500000000000532e-02 3.500659999999999883e-01 1.142600000000000005e-01 -1.549699999999999966e-01
5.212830000000000519e-01 -6.970429999999999682e-01 1.357134999999999980e+00 -7.371700000000000474e-02 -7.973099999999999632e-02 -7.521900000000000253e-01 -2.361590000000000078e-01 -5.979320000000000190e-01 -5.309479999999999755e-01 -3.532520000000000104e-01 4.491879999999999762e-01 8.518210000000000504e-01 1.119480999999999948e+00 -6.070459999999999745e-01 4.997759999999999980e-01 -9.262909999999999755e-01 1.614760000000000084e-01 9.596909999999999608e-01 -7.709499999999999686e-02 1.311879999999999991e-01 -1.927389999999999937e-01 5.198690000000000255e-01 -7.213220000000000187e-01 8.185090000000000421e-01 2.159669999999999923e-01 3.053499999999999964e-02 4.140429999999999944e-01 1.413556000000000035e+00 -5.877700000000000286e-02 -7.232429999999999692e-01 -2.383419999999999983e-01 1.326950000000000074e-01 -8.630500000000000671e-02 -6.802690000000000126e-01 5.086810000000000498e-01 2.995999999999999965e-03 -9.996850000000000458e-01 -4.967550000000000021e-01 -1.174285000000000023e+00 3.546699999999999853e-02 1.614490000000000092e-01 -7.900799999999999490e-02 2.790179999999999882e-01 1.606080000000000008e-01 -4.169400000000000189e-02 -1.978890000000000093e-01 1.431769999999999987e+00 -5.165330000000000199e-01 -1.049279999999999935e-01 -4.646190000000000042e-01 4.244069999999999787e-01 -1.448460000000000025e-01 -1.975909999999999889e-01 -5.191559999999999508e-01 8.852999999999999758e-03 4.499489999999999879e-01 -4.659449999999999981e-01 -8.101999999999999480e-02 3.032779999999999920e-01 -2.463309999999999944e-01
1.133555000000000090e+00 4.821460000000000190e-01 -1.140131000000000006e+00 -7.589280000000000470e-01 4.538039999999999852e-01 -7.363129999999999953e-01 -4.455399999999999916e-01 1.748092999999999897e+00 1.829439999999999955e-01 -9.519099999999999784e-02 -1.208399000000000001e+00 4.587399999999999811e-02 -1.736029000000000044e+00 7.483560000000000212e-01 5.678269999999999706e-01 5.033370000000000344e-01 -2.574620000000000242e-01 -1.107739999999999975e-01 -3.340549999999999908e-01 5.322909999999999586e-01 3.532190000000000052e-01 1.637460000000000027e-01 5.663730000000000153e-01 -7.670559999999999601e-01 6.304819999999999869e-01 -5.234929999999999861e-01 4.469890000000000252e-01 2.695389999999999731e-01 -6.253699999999999537e-02 5.177530000000000188e-01 -4.562629999999999741e-01 -7.495150000000000423e-01 4.165329999999999866e-01 3.381930000000000214e-01 4.680150000000000143e-01 -5.070399999999999907e-02 -6.585729999999999640e-01 -6.193359999999999976e-01 -8.439600000000000435e-01 -7.382279999999999953e-01 -1.467279999999999973e-01 8.620670000000000277e-01 3.367140000000000133e-01 -5.834049999999999514e-01 -1.241986999999999952e+00 9.045239999999999947e-01 -3.583319999999999839e-01 -6.633809999999999985e-01 1.104756000000000071e+00 -6.255330000000000057e-01 1.240383999999999931e+00 2.213430000000000120e-01 -2.203330000000000011e-01 -1.403599999999999987e-02 1.955600000000000047e-02 -1.644800000000000081e-02 1.189699999999999959e-02 -4.029369999999999896e-01 3.724419999999999953e-01 9.228579999999999561e-01
-1.600489999999999968e-01 -5.281240000000000379e-01 -1.159798000000000107e+00 -3.289239999999999942e-01 -1.775569999999999926e-01 1.302149999999999974e-01 -1.642740000000000034e-01 1.437839999999999951e-01 -1.856294000000000111e+00 8.763619999999999743e-01 -8.996880000000000432e-01 -1.557209999999999983e-01 7.103779999999999539e-01 9.308889999999999665e-01 -7.836790000000000145e-01 2.480610000000000037e-01 1.991890000000000049e-01 6.259399999999999686e-02 1.017050000000000037e-01 -1.427432000000000034e+00 1.144470000000000098e+00 3.528720000000000190e-01 1.252302000000000026e+00 1.076721999999999957e+00 -4.747400000000000231e-02 1.055574999999999930e+00 4.485460000000000003e-01 -3.716380000000000239e-01 -2.132850000000000024e-01 2.583460000000000201e-01 6.121220000000000550e-01 3.257099999999999995e-01 4.480919999999999903e-01 -1.483339999999999936e-01 5.657229999999999759e-01 7.193380000000000329e-01 2.007079999999999975e-01 1.553519999999999901e-01 4.774289999999999923e-01 -1.380473000000000061e+00 -1.251808000000000032e+00 -8.541170000000000151e-01 -2.541590000000000238e-01 1.276399999999999930e-02 1.326626000000000083e+00 9.863380000000000480e-01 7.518310000000000271e-01 -1.458522000000000096e+00 7.545089999999999852e-01 -5.439260000000000206e-01 7.668439999999999701e-01 -1.532169999999999921e-01 -8.236179999999999612e-01 4.409629999999999939e-01 -1.253238999999999992e+00 3.177039999999999864e-01 -7.831200000000000383e-01 -5.812720000000000109e-01 1.546150000000000024e-01 -2.489339999999999886e-01
-5.712869999999999893e-01 -1.348479999999999956e-01 7.746269999999999545e-01 -7.610710000000000530e-01 -5.793469999999999454e-01 -2.319360000000000033e-01 7.630010000000000403e-01 3.850689999999999946e-01 -3.341399999999999926e-01 9.308840000000000447e-01 5.741690000000000405e-01 -6.953770000000000229e-01 -4.557189999999999852e-01 -5.982819999999999805e-01 -1.219073000000000073e+00 -2.563570000000000015e-01 3.763639999999999763e-01 -1.501339999999999897e-01 -2.964080000000000048e-01 1.061190000000000050e-01 -1.286645999999999956e+00 6.371759999999999646e-01 -2.205090000000000106e-01 -4.659920000000000173e-01 -4.907449999999999868e-01 1.905669999999999864e-01 4.425470000000000237e-01 -9.962239999999999984e-01 -1.352643000000000040e+00 6.662300000000000166e-02 3.223079999999999834e-01 9.883330000000000171e-01 -6.176999999999999852e-02 6.044410000000000061e-01 -7.362630000000000008e-01 -6.523569999999999647e-01 1.315739999999999965e-01 8.404430000000000511e-01 -4.182569999999999899e-01 7.486720000000000041e-01 -2.191699999999999898e-02 1.998237000000000041e+00 -5.525109999999999744e-01 5.461869999999999781e-01 6.529100000000000181e-02 -1.100399999999999989e-02 -2.652169999999999805e-01 4.657060000000000088e-01 2.762049999999999783e-01 1.483260000000000134e-01 -1.462199999999999958e-02 -6.694759999999999600e-01 -2.034400000000000097e-01 7.574760000000000382e-01 -7.285999999999999421e-02 -5.443329999999999558e-01 2.544739999999999780e-01 7.194030000000000147e-01 5.012240000000000029e-01 7.053220000000000045e-01
9.436330000000000551e-01 -8.134489999999999776e-01 2.373869999999999869e-01 -2.237230000000000052e-01 9.644989999999999952e-01 -2.869769999999999821e-01 1.933479999999999921e-01 5.111449999999999605e-01 -3.507259999999999822e-01 -5.927299999999999791e-01 3.216729999999999867e-01 -1.667410000000000003e-01 4.527149999999999785e-01 -4.220960000000000267e-01 -7.171299999999999897e-02 -7.382480000000000153e-01 1.658476000000000061e+00 2.713400000000000256e-01 5.189749999999999641e-01 -1.527428999999999926e+00 8.432399999999999618e-02 -6.826109999999999678e-01 -8.293000000000000371e-02 -2.064829999999999999e-01 1.275846999999999953e+00 -5.151409999999999600e-01 -5.757280000000000175e-01 -2.502469999999999972e-01 -1.164997000000000060e+00 4.530170000000000030e-01 -3.636730000000000240e-01 1.086019999999999985e+00 1.306070000000000009e-01 -8.091350000000000486e-01 -7.240199999999999969e-01 6.713609999999999856e-01 5.815499999999999836e-02 3.706389999999999962e-01 -7.764799999999999480e-02 -4.465549999999999797e-01 6.759659999999999558e-01 -6.267479999999999718e-01 1.364724999999999966e+00 -3.712349999999999817e-01 5.569169999999999954e-01 -9.007730000000000459e-01 1.265640000000000098e-01 3.296209999999999973e-01 1.238889999999999991e-01 9.142689999999999984e-01 -5.607399999999999884e-02 3.815339999999999843e-01 -8.502899999999999348e-02 4.394569999999999865e-01 1.967599999999999905e-02 -1.621759999999999868e-01 -4.100550000000000028e-01 -3.248030000000000084e-01 -7.607509999999999550e-01 -3.451380000000000003e-01
6.929250000000000131e-01 1.604200000000000070e-02 7.850500000000000256e-01 -4.997900000000000120e-01 4.363290000000000224e-01 -8.166149999999999798e-01 -5.124339999999999451e-01 6.954799999999999871e-01 -1.767910000000000037e-01 8.954499999999999960e-02 -1.319404000000000021e+00 3.954579999999999762e-01 -2.000969999999999971e-01 -7.270410000000000483e-01 -1.944289999999999907e-01 -1.247319999999999957e-01 9.344399999999999928e-02 -2.778829999999999911e-01 1.370689999999999964e-01 2.131500000000000061e-01 -7.320219999999999505e-01 6.233950000000000324e-01 5.171459999999999946e-01 7.138179999999999525e-01 -3.055930000000000035e-01 5.278760000000000119e-01 -9.406899999999999984e-02 4.739749999999999797e-01 1.624990000000000046e-01 6.007839999999999847e-01 -3.713600000000000234e-02 -6.915259999999999740e-01 4.169059999999999988e-01 -1.427730000000000110e-01 -1.361350000000000060e-01 2.408639999999999948e-01 -8.397240000000000260e-01 -1.899969999999999992e-01 -1.417817000000000105e+00 -8.159129999999999994e-01 -3.721740000000000048e-01 -4.083680000000000088e-01 3.497750000000000026e-01 5.119300000000000239e-02 -1.204110000000000041e-01 4.794669999999999765e-01 -2.466279999999999861e-01 -3.954559999999999742e-01 -1.014672000000000018e+00 2.360530000000000128e-01 3.360049999999999981e-01 4.623680000000000012e-01 -9.545399999999999718e-02 4.944959999999999911e-01 1.437507000000000090e+00 8.847390000000000532e-01 1.618570000000000009e-01 -2.531619999999999981e-01 -5.559499999999999859e-02 4.886220000000000008e-01
6.428089999999999637e-01 -1.351067000000000018e+00 8.604359999999999786e-01 -1.036372000000000071e+00 -3.021599999999999842e-01 -6.413000000000000644e-02 -2.265530000000000044e-01 6.853299999999999947e-01 -3.213449999999999918e-01 -4.466300000000000270e-01 -3.842400000000000260e-01 -7.958300000000000096e-02 3.988760000000000083e-01 -3.634669999999999845e-01 5.701929999999999499e-01 3.459400000000000253e-01 7.714590000000000058e-01 -4.213259999999999783e-01 1.763230000000000075e-01 -1.299625999999999948e+00 3.584019999999999984e-01 -1.401540000000000008e-01 5.195899999999999824e-02 2.519020000000000148e-01 -3.864000000000000212e-01 7.880800000000000027e-01 7.316519999999999690e-01 8.044120000000000159e-01 -5.801790000000000003e-01 -9.566500000000000004e-02 9.589200000000000501e-02 -5.098700000000000454e-01 -6.401400000000000423e-01 8.606340000000000101e-01 1.208725999999999967e+00 -6.349620000000000264e-01 -5.508819999999999828e-01 9.886850000000000360e-01 1.684589999999999976e-01 -3.955040000000000222e-01 4.699309999999999876e-01 -2.790960000000000107e-01 -1.148290000000000005e-01 2.666859999999999786e-01 1.354549999999999921e-01 -3.148329999999999740e-01 3.733060000000000267e-01 -2.212490000000000012e-01 -1.475180000000000102e-01 -6.856560000000000432e-01 -9.034399999999999376e-02 -8.467010000000000369e-01 -5.284330000000000416e-01 -3.422599999999999948e-02 3.562230000000000119e-01 3.255000000000000254e-02 9.602700000000000125e-02 9.252660000000000329e-01 3.679859999999999798e-01 -2.904599999999999960e-01
3.632250000000000201e-01 -9.170850000000000390e-01 1.467232000000000092e+00 -7.557099999999999929e-02 9.886559999999999793e-01 1.573199999999999946e-02 6.352499999999999813e-01 6.250809999999999977e-01 1.576429999999999998e+00 5.867719999999999603e-01 -2.582800000000000026e-02 -7.638519999999999754e-01 2.196349999999999969e-01 1.225405000000000078e+00 -4.667979999999999907e-01 -1.465332999999999997e+00 -5.358039999999999470e-01 -6.692599999999999938e-02 -9.094430000000000014e-01 5.929529999999999523e-01 -1.984045000000000059e+00 6.687079999999999691e-01 -3.719959999999999933e-01 -3.893599999999999839e-02 -8.808499999999999663e-02 3.773200000000000165e-02 -2.932879999999999932e-01 -3.631469999999999976e-01 -3.324499999999999678e-02 -4.235499999999999821e-01 -4.340629999999999766e-01 -7.127980000000000427e-01 -4.856059999999999821e-01 6.245929999999999538e-01 -1.605910000000000115e-01 -5.544449999999999656e-01 -8.118499999999999328e-02 -6.518840000000000190e-01 -8.024449999999999639e-01 -3.419010000000000105e-01 2.308899999999999841e-02 8.607110000000000039e-01 -3.948800000000000088e-01 5.200500000000000261e-02 -6.982319999999999638e-01 2.104599999999999874e-02 -5.598980000000000068e-01 7.490959999999999841e-01 -2.608309999999999795e-01 -4.493099999999999872e-02 -3.344170000000000198e-01 1.115434999999999954e+00 5.866149999999999975e-01 5.453980000000000494e-01 8.435479999999999645e-01 1.374399999999999927e-02 1.063328000000000051e+00 -6.637739999999999752e-01 -1.312190000000000023e-01 6.346110000000000362e-01
-6.940809999999999480e-01 3.392169999999999908e-01 -2.087326000000000015e+00 -1.023270000000000013e-01 -2.913899999999999824e-01 6.018199999999999938e-02 3.965830000000000188e-01 -1.447060000000000013e-01 4.545609999999999928e-01 -9.040829999999999700e-01 6.981119999999999548e-01 4.443900000000000072e-01 -8.798610000000000042e-01 -6.500100000000000322e-02 -1.450960000000000027e-01 3.686899999999999900e-02 3.274900000000000033e-01 2.021799999999999986e-02 5.252940000000000387e-01 -3.550909999999999900e-01 4.459699999999999775e-02 -2.842370000000000174e-01 2.694480000000000208e-01 -1.093089999999999895e+00 9.397300000000000098e-02 4.346929999999999961e-01 7.094319999999999515e-01 5.882169999999999899e-01 8.406099999999999683e-02 -5.236680000000000224e-01 1.827249999999999985e-01 -5.738600000000000367e-01 -6.398700000000000221e-02 1.627740000000000020e-01 -1.922300000000000120e-01 6.387420000000000320e-01 -8.138199999999999601e-02 2.131589999999999874e-01 9.711170000000000080e-01 1.113647000000000054e+00 -2.366540000000000032e-01 -3.937470000000000137e-01 -1.077799999999999939e-02 -4.487740000000000062e-01 -5.783530000000000060e-01 -2.409469999999999945e-01 -1.311388999999999916e+00 -6.121689999999999632e-01 4.760280000000000067e-01 4.442249999999999810e-01 6.115279999999999605e-01 3.020530000000000159e-01 1.142220000000000041e-01 2.704650000000000110e-01 4.081339999999999968e-01 5.857090000000000352e-01 5.649999999999999641e-04 -1.088602000000000070e+00 1.087579999999999936e-01 1.271638000000000046e+00
7.510780000000000234e-01 2.000679999999999958e-01 -1.168190000000000062e-01 -1.994680000000000009e+00 1.079253999999999936e+00 9.073750000000000426e-01 -2.966210000000000235e-01 1.784219999999999973e-01 7.385439999999999783e-01 2.086969999999999936e-01 -6.164640000000000120e-01 1.653075999999999990e+00 -1.032049999999999912e+00 6.904999999999999680e-03 1.256013999999999964e+00 -1.409933000000000103e+00 -2.140680000000000083e-01 9.443369999999999820e-01 -2.510700000000000084e-02 -3.817590000000000150e-01 -2.132699999999999874e-01 4.689490000000000047e-01 6.073349999999999582e-01 -1.338699999999999890e-01 5.766299999999999759e-01 5.068570000000000020e-01 -7.115860000000000518e-01 6.545360000000000067e-01 2.466399999999999842e-02 1.178840000000000027e-01 -8.010399999999999743e-01 3.254819999999999935e-01 3.462959999999999927e-01 1.138879999999999892e+00 -1.371458000000000066e+00 -1.108875000000000055e+00 6.221769999999999801e-01 -6.305830000000000046e-01 -2.695679999999999743e-01 -1.755390000000000006e-01 2.207000000000000194e-03 -1.002210000000000045e-01 -1.672720000000000040e-01 2.375379999999999991e-01 -9.396569999999999645e-01 -3.513199999999999656e-02 -2.748700000000000032e-01 -7.465789999999999926e-01 7.477899999999999825e-02 -1.454159999999999897e-01 4.245000000000000162e-02 1.090880999999999990e+00 -1.133920999999999957e+00 -5.849389999999999867e-01 1.169693000000000094e+00 4.429409999999999736e-01 -1.154074999999999962e+00 -8.189250000000000140e-01 1.156865999999999950e+00 7.348200000000000565e-02
7.570149999999999935e-01 2.197770000000000001e-01 4.026330000000000187e-01 -2.469359999999999888e-01 5.250850000000000239e-01 5.116370000000000084e-01 1.180220000000000019e-01 1.887099999999999889e-02 7.209919999999999662e-01 9.531799999999999995e-02 8.841400000000000647e-02 1.123879999999999990e+00 -4.872179999999999844e-01 -9.266000000000000625e-02 6.282299999999999551e-01 -3.602899999999999991e-01 -1.290560000000000040e-01 1.672299999999999898e-01 5.766069999999999807e-01 -5.054999999999999598e-03 -3.633390000000000231e-01 -6.717159999999999798e-01 -4.289310000000000067e-01 8.634779999999999678e-01 -5.037089999999999623e-01 5.801220000000000265e-01 -2.259500000000000119e-01 4.233149999999999968e-01 -1.504369999999999874e-01 -2.446929999999999938e-01 -3.990770000000000151e-01 -4.622879999999999767e-01 -8.974100000000000132e-02 -3.332749999999999879e-01 -2.050480000000000080e-01 -3.471810000000000174e-01 -4.902200000000000307e-02 -8.892999999999999516e-02 -6.200430000000000108e-01 4.642350000000000088e-01 -3.962450000000000139e-01 -8.513060000000000072e-01 1.496949999999999947e-01 7.037430000000000074e-01 -1.261722999999999928e+00 5.283440000000000358e-01 -9.417309999999999848e-01 -6.172180000000000444e-01 -3.425999999999999879e-02 -7.219599999999999629e-02 4.301000000000000136e-03 -2.717700000000000116e-01 -1.193299999999999916e-02 -4.595699999999999785e-02 -4.606799999999999784e-02 -2.048751000000000211e+00 -1.443909999999999916e-01 2.907930000000000237e-01 2.897250000000000103e+00 3.891620000000000079e-01
-1.229760000000000020e-01 7.939400000000000623e-02 -2.849329999999999918e-01 -5.829999999999999679e-04 -4.209700000000000109e-01 1.809870000000000090e-01 5.598260000000000458e-01 -1.210728000000000026e+00 -5.149100000000000205e-02 7.893639999999999546e-01 9.517630000000000257e-01 -6.120579999999999909e-01 -2.126510000000000067e-01 -2.007430000000000048e-01 2.346050000000000080e-01 7.310099999999999931e-02 -1.712039999999999951e-01 1.056969999999999993e-01 5.749599999999999850e-02 -7.090389999999999748e-01 4.805619999999999892e-01 -1.914659999999999973e-01 6.023469999999999658e-01 -3.017000000000000237e-01 -1.094446999999999948e+00 -3.164060000000000206e-01 1.179516999999999927e+00 -9.086589999999999945e-01 3.021539999999999782e-01 3.723540000000000183e-01 7.048740000000000006e-01 4.338899999999999701e-02 -7.931049999999999489e-01 -5.775850000000000151e-01 2.309599999999999848e-02 3.525530000000000053e-01 -3.534240000000000159e-01 2.603929999999999856e-01 -2.116059999999999885e-01 -4.386000000000000142e-03 -4.472149999999999737e-01 3.535249999999999782e-01 -5.571960000000000246e-01 7.667620000000000546e-01 4.004820000000000046e-01 4.607820000000000249e-01 -6.817399999999999849e-02 3.110459999999999892e-01 -6.939349999999999685e-01 2.995389999999999997e-01 -2.078669999999999962e-01 8.841899999999999760e-02 -3.686670000000000225e-01 -7.223340000000000316e-01 1.124228000000000005e+00 1.134420000000000012e-01 -1.134129999999999999e-01 8.592159999999999798e-01 4.708669999999999800e-01 -6.728220000000000312e-01