8.887930668999999284e+00 0.000000000000000000e+00 0.000000000000000000e+00 -4.294911523999999758e+00 7.439005500000000382e+00 0.000000000000000000e+00 0.000000000000000000e+00 0.000000000000000000e+00 2.000000000000000000e+01
8.914779549000000358e+00 0.000000000000000000e+00 0.000000000000000000e+00 -4.101880504000000371e+00 7.104665941000000373e+00 0.000000000000000000e+00 0.000000000000000000e+00 0.000000000000000000e+00 2.000000000000000000e+01
8.560778989999999311e+00 0.000000000000000000e+00 0.000000000000000000e+00 -4.580836483999999764e+00 7.934242092999999940e+00 0.000000000000000000e+00 0.000000000000000000e+00 0.000000000000000000e+00 2.000000000000000000e+01
8.551007452000000342e+00 0.000000000000000000e+00 0.000000000000000000e+00 -4.109032151000000077e+00 7.117052958000000373e+00 0.000000000000000000e+00 0.000000000000000000e+00 0.000000000000000000e+00 2.000000000000000000e+01
7.297418074000000310e+00 0.000000000000000000e+00 0.000000000000000000e+00 -3.602310421999999956e+00 6.239385116000000231e+00 0.000000000000000000e+00 0.000000000000000000e+00 0.000000000000000000e+00 2.000000000000000000e+01
8.255512295000000833e+00 0.000000000000000000e+00 0.000000000000000000e+00 -4.330097021000000268e+00 7.499948571000000008e+00 0.000000000000000000e+00 0.000000000000000000e+00 0.000000000000000000e+00 2.000000000000000000e+01
8.273757135000000318e+00 0.000000000000000000e+00 0.000000000000000000e+00 -4.278206306999999597e+00 7.410071213000000157e+00 0.000000000000000000e+00 0.000000000000000000e+00 0.000000000000000000e+00 2.000000000000000000e+01
1.151165684999999961e+01 0.000000000000000000e+00 0.000000000000000000e+00 -2.665919097000000182e+00 4.617507651000000379e+00 0.000000000000000000e+00 0.000000000000000000e+00 0.000000000000000000e+00 2.000000000000000000e+01
7.420958460999999673e+00 0.000000000000000000e+00 0.000000000000000000e+00 2.413712823000000007e+00 6.354904163999999689e+00 0.000000000000000000e+00 0.000000000000000000e+00 0.000000000000000000e+00 2.000000000000000000e+01
8.682326648000000091e+00 0.000000000000000000e+00 0.000000000000000000e+00 -4.228805701999999833e+00 7.324506848999999598e+00 0.000000000000000000e+00 0.000000000000000000e+00 0.000000000000000000e+00 2.000000000000000000e+01
8.121809343000000680e+00 0.000000000000000000e+00 0.000000000000000000e+00 -4.023045327000000171e+00 6.968119399999999963e+00 0.000000000000000000e+00 0.000000000000000000e+00 0.000000000000000000e+00 2.000000000000000000e+01
7.206828574000000209e+00 0.000000000000000000e+00 0.000000000000000000e+00 -3.668163954000000171e+00 6.353446788000000289e+00 0.000000000000000000e+00 0.000000000000000000e+00 0.000000000000000000e+00 2.000000000000000000e+01
8.392513465000000394e+00 0.000000000000000000e+00 0.000000000000000000e+00 -4.118092413000000285e+00 7.132745793999999862e+00 0.000000000000000000e+00 0.000000000000000000e+00 0.000000000000000000e+00 2.000000000000000000e+01
8.049240936000000346e+00 0.000000000000000000e+00 0.000000000000000000e+00 -4.275338533000000218e+00 7.405104082000000254e+00 0.000000000000000000e+00 0.000000000000000000e+00 0.000000000000000000e+00 2.000000000000000000e+01
8.583640220999999570e+00 0.000000000000000000e+00 0.000000000000000000e+00 -4.215374214999999758e+00 7.301242829999999628e+00 0.000000000000000000e+00 0.000000000000000000e+00 0.000000000000000000e+00 2.000000000000000000e+01
8.972617025999999996e+00 0.000000000000000000e+00 0.000000000000000000e+00 -4.538762312000000243e+00 7.861367483000000433e+00 0.000000000000000000e+00 0.000000000000000000e+00 0.000000000000000000e+00 2.000000000000000000e+01
8.621103220000000178e+00 0.000000000000000000e+00 0.000000000000000000e+00 -4.480660981999999848e+00 7.760733021000000065e+00 0.000000000000000000e+00 0.000000000000000000e+00 0.000000000000000000e+00 2.000000000000000000e+01
8.708227479999999687e+00 0.000000000000000000e+00 0.000000000000000000e+00 -4.575010267999999769e+00 7.924150788999999584e+00 0.000000000000000000e+00 0.000000000000000000e+00 0.000000000000000000e+00 2.000000000000000000e+01
8.428834845000000797e+00 0.000000000000000000e+00 0.000000000000000000e+00 -3.999248222999999935e+00 6.926901603000000129e+00 0.000000000000000000e+00 0.000000000000000000e+00 0.000000000000000000e+00 2.000000000000000000e+01
8.925438674000000461e+00 0.000000000000000000e+00 0.000000000000000000e+00 -3.964339938000000174e+00 6.866438676999999657e+00 0.000000000000000000e+00 0.000000000000000000e+00 0.000000000000000000e+00 2.000000000000000000e+01
8.535435141000000669e+00 0.000000000000000000e+00 0.000000000000000000e+00 -4.120254372999999859e+00 7.136490419000000252e+00 0.000000000000000000e+00 0.000000000000000000e+00 0.000000000000000000e+00 2.000000000000000000e+01
8.638006686000000656e+00 0.000000000000000000e+00 0.000000000000000000e+00 -4.391072846000000141e+00 7.605561806999999952e+00 0.000000000000000000e+00 0.000000000000000000e+00 0.000000000000000000e+00 2.000000000000000000e+01
1.137063829699999928e+01 0.000000000000000000e+00 0.000000000000000000e+00 -2.164076161000000109e+00 3.748290127999999832e+00 0.000000000000000000e+00 0.000000000000000000e+00 0.000000000000000000e+00 2.000000000000000000e+01
8.533952065999999448e+00 0.000000000000000000e+00 0.000000000000000000e+00 -4.271742757000000168e+00 7.398876016000000000e+00 0.000000000000000000e+00 0.000000000000000000e+00 0.000000000000000000e+00 2.000000000000000000e+01
8.718772769999999284e+00 0.000000000000000000e+00 0.000000000000000000e+00 -4.247384563999999862e+00 7.356686383000000440e+00 0.000000000000000000e+00 0.000000000000000000e+00 0.000000000000000000e+00 2.000000000000000000e+01
8.757875774000000391e+00 0.000000000000000000e+00 0.000000000000000000e+00 -4.528774614999999670e+00 7.844068283000000363e+00 0.000000000000000000e+00 0.000000000000000000e+00 0.000000000000000000e+00 2.000000000000000000e+01
8.577138269000000648e+00 0.000000000000000000e+00 0.000000000000000000e+00 -4.483043835000000144e+00 7.764860244000000300e+00 0.000000000000000000e+00 0.000000000000000000e+00 0.000000000000000000e+00 2.000000000000000000e+01
8.628975730000000510e+00 0.000000000000000000e+00 0.000000000000000000e+00 -4.242667400000000200e+00 7.348516015000000401e+00 0.000000000000000000e+00 0.000000000000000000e+00 0.000000000000000000e+00 2.000000000000000000e+01
8.457297664000000381e+00 0.000000000000000000e+00 0.000000000000000000e+00 -4.395454778999999590e+00 7.613151538000000329e+00 0.000000000000000000e+00 0.000000000000000000e+00 0.000000000000000000e+00 2.000000000000000000e+01
8.047038516000000641e+00 0.000000000000000000e+00 0.000000000000000000e+00 -4.095601926999999698e+00 7.093791127000000252e+00 0.000000000000000000e+00 0.000000000000000000e+00 0.000000000000000000e+00 2.000000000000000000e+01
7.830667906999999595e+00 0.000000000000000000e+00 0.000000000000000000e+00 -4.128220607000000264e+00 7.150288341000000436e+00 0.000000000000000000e+00 0.000000000000000000e+00 0.000000000000000000e+00 2.000000000000000000e+01
9.039570141000000447e+00 0.000000000000000000e+00 0.000000000000000000e+00 -4.453077067999999805e+00 7.712956275999999889e+00 0.000000000000000000e+00 0.000000000000000000e+00 0.000000000000000000e+00 2.000000000000000000e+01
9.011967503999999352e+00 0.000000000000000000e+00 0.000000000000000000e+00 -4.164639458999999988e+00 7.213367648000000187e+00 0.000000000000000000e+00 0.000000000000000000e+00 0.000000000000000000e+00 2.000000000000000000e+01
8.535906620000000444e+00 0.000000000000000000e+00 0.000000000000000000e+00 -3.891715669999999960e+00 6.740649744999999804e+00 0.000000000000000000e+00 0.000000000000000000e+00 0.000000000000000000e+00 2.000000000000000000e+01
8.232060061000000317e+00 0.000000000000000000e+00 0.000000000000000000e+00 -4.174261097999999670e+00 7.230032815999999585e+00 0.000000000000000000e+00 0.000000000000000000e+00 0.000000000000000000e+00 2.000000000000000000e+01
9.102998859999999581e+00 0.000000000000000000e+00 0.000000000000000000e+00 -4.414389444000000218e+00 7.645947342000000369e+00 0.000000000000000000e+00 0.000000000000000000e+00 0.000000000000000000e+00 2.000000000000000000e+01
8.790620137999999528e+00 0.000000000000000000e+00 0.000000000000000000e+00 -4.440075210999999911e+00 7.690436398000000118e+00 0.000000000000000000e+00 0.000000000000000000e+00 0.000000000000000000e+00 2.000000000000000000e+01
8.598525782999999478e+00 0.000000000000000000e+00 0.000000000000000000e+00 -4.492696299000000337e+00 7.781578803000000377e+00 0.000000000000000000e+00 0.000000000000000000e+00 0.000000000000000000e+00 2.000000000000000000e+01
9.232254239999999612e+00 0.000000000000000000e+00 0.000000000000000000e+00 -4.693421437999999668e+00 8.129244965999999906e+00 0.000000000000000000e+00 0.000000000000000000e+00 0.000000000000000000e+00 2.000000000000000000e+01
8.175932095000000288e+00 0.000000000000000000e+00 0.000000000000000000e+00 -4.224923301999999659e+00 7.317782334000000333e+00 0.000000000000000000e+00 0.000000000000000000e+00 0.000000000000000000e+00 2.000000000000000000e+01
8.284961837999999190e+00 0.000000000000000000e+00 0.000000000000000000e+00 -4.352137051999999784e+00 7.538123029000000308e+00 0.000000000000000000e+00 0.000000000000000000e+00 0.000000000000000000e+00 2.000000000000000000e+01
9.074603054000000668e+00 0.000000000000000000e+00 0.000000000000000000e+00 -3.954814498000000178e+00 6.849940129000000155e+00 0.000000000000000000e+00 0.000000000000000000e+00 0.000000000000000000e+00 2.000000000000000000e+01
8.239566259000000059e+00 0.000000000000000000e+00 0.000000000000000000e+00 -4.299782697999999570e+00 7.447442621000000429e+00 0.000000000000000000e+00 0.000000000000000000e+00 0.000000000000000000e+00 2.000000000000000000e+01
8.503419591000000111e+00 0.000000000000000000e+00 0.000000000000000000e+00 -4.086030307999999778e+00 7.077212594999999773e+00 0.000000000000000000e+00 0.000000000000000000e+00 0.000000000000000000e+00 2.000000000000000000e+01
8.854089064000000064e+00 0.000000000000000000e+00 0.000000000000000000e+00 -4.266105370000000008e+00 7.389111773999999855e+00 0.000000000000000000e+00 0.000000000000000000e+00 0.000000000000000000e+00 2.000000000000000000e+01
1.103408415300000023e+01 0.000000000000000000e+00 0.000000000000000000e+00 -2.611377248999999789e+00 4.523038392000000130e+00 0.000000000000000000e+00 0.000000000000000000e+00 0.000000000000000000e+00 2.000000000000000000e+01
8.902260119999999333e+00 0.000000000000000000e+00 0.000000000000000000e+00 -4.471514031999999972e+00 7.744890038000000310e+00 0.000000000000000000e+00 0.000000000000000000e+00 0.000000000000000000e+00 2.000000000000000000e+01
9.005770541000000406e+00 0.000000000000000000e+00 0.000000000000000000e+00 -4.695219240000000127e+00 8.132358850999999333e+00 0.000000000000000000e+00 0.000000000000000000e+00 0.000000000000000000e+00 2.000000000000000000e+01
