1.957719999999999905e+00 9.667400000000000437e-01 1.137880000000000003e+01 -2.985200000000000076e-01 5.020609999999999573e+00 1.191789999999999949e+01 6.130709999999999660e+00 1.092530000000000001e+00 1.206090000000000018e+01 4.075510000000000410e+00 4.776810000000000223e+00 1.182080000000000020e+01 4.499699999999999811e+00 7.429240000000000066e+00 1.563410000000000011e+01 -2.118959999999999955e+00 3.913499999999999979e+00 1.575670000000000037e+01 2.435499999999999887e-01 7.425600000000000200e+00 1.581920000000000037e+01 2.291690000000000005e+00 3.147159999999999958e+00 1.534009999999999962e+01 4.168149999999999800e+00 7.232999999999999652e+00 1.091910000000000025e+01 6.414290000000000269e+00 3.628029999999999866e+00 1.121419999999999995e+01 4.316769999999999996e+00 4.585000000000000187e-02 1.063969999999999949e+01 1.861620000000000053e+00 3.624929999999999986e+00 1.105969999999999942e+01 2.216779999999999973e+00 7.716399999999999926e-01 1.413109999999999999e+01 3.396899999999999920e-01 5.054719999999999658e+00 1.503669999999999973e+01 6.748789999999999623e+00 1.288329999999999975e+00 1.461069999999999958e+01 4.280540000000000234e+00 4.955499999999999794e+00 1.453480000000000061e+01 6.888800000000000479e-01 4.263799999999999812e-01 1.776320000000000121e+01 -2.244810000000000194e+00 6.119220000000000326e+00 1.738500000000000156e+01 5.525780000000000136e+00 5.526200000000000001e-01 1.803640000000000043e+01 4.387870000000000381e+00 2.401670000000000194e+00 1.729510000000000147e+01
1.973519999999999941e+00 1.894079999999999986e+00 1.102640000000000065e+01 4.216599999999999793e-01 5.715429999999999566e+00 1.203720000000000034e+01 6.495820000000000149e+00 2.049549999999999983e+00 1.171180000000000021e+01 4.885550000000000281e+00 6.131739999999999746e+00 1.186790000000000056e+01 4.436069999999999958e+00 5.477579999999999671e+00 1.753630000000000067e+01 -1.714960000000000040e+00 3.111679999999999779e+00 1.606289999999999907e+01 7.107799999999999674e-01 6.942289999999999850e+00 1.652550000000000097e+01 3.729890000000000150e+00 2.981749999999999901e+00 1.423349999999999937e+01 -2.831099999999999728e-01 1.191419999999999924e+00 1.035040000000000049e+01 -1.853150000000000075e+00 4.629439999999999777e+00 1.112270000000000003e+01 4.503919999999999924e+00 7.976999999999999647e-01 1.070100000000000051e+01 2.454569999999999919e+00 4.677590000000000359e+00 1.060089999999999932e+01 1.518359999999999932e+00 1.454499999999999904e+00 1.361580000000000013e+01 -1.111100000000000004e-01 4.751089999999999591e+00 1.468510000000000026e+01 5.943730000000000402e+00 1.257419999999999982e+00 1.444899999999999984e+01 4.976029999999999731e+00 5.311740000000000350e+00 1.433130000000000059e+01 -1.731109999999999927e+00 4.120180000000000398e+00 1.845589999999999975e+01 3.560020000000000184e+00 2.369660000000000100e+00 1.692269999999999897e+01 1.835909999999999931e+00 5.953999999999999737e+00 1.847650000000000148e+01 1.352819999999999911e+00 2.082920000000000105e+00 1.700400000000000134e+01
2.182830000000000048e+00 1.543979999999999908e+00 1.181930000000000014e+01 7.406000000000000083e-02 5.383219999999999672e+00 1.161469999999999914e+01 6.447860000000000369e+00 1.520750000000000046e+00 1.172639999999999993e+01 4.380309999999999704e+00 5.436300000000000132e+00 1.190360000000000085e+01 3.398489999999999789e+00 7.759050000000000225e+00 1.557329999999999970e+01 -1.770739999999999981e+00 4.110089999999999577e+00 1.604200000000000159e+01 -3.473200000000000176e-01 7.778920000000000279e+00 1.522569999999999979e+01 2.186869999999999870e+00 4.099730000000000096e+00 1.580390000000000050e+01 8.465830000000000410e+00 7.796000000000000152e-02 1.116750000000000043e+01 -2.141880000000000006e+00 3.878019999999999801e+00 1.063049999999999962e+01 4.368330000000000268e+00 4.227999999999999814e-02 1.114889999999999937e+01 2.336980000000000057e+00 3.884840000000000071e+00 1.095659999999999989e+01 2.031579999999999941e+00 1.345900000000000096e+00 1.464729999999999954e+01 3.725800000000000223e-01 5.411459999999999937e+00 1.437609999999999921e+01 6.138119999999999798e+00 1.535050000000000026e+00 1.445780000000000065e+01 4.729199999999999626e+00 5.327930000000000277e+00 1.474810000000000088e+01 6.551230000000000331e+00 1.700000000000000122e-01 1.798379999999999868e+01 -1.366100000000000092e-01 2.063029999999999919e+00 1.675169999999999959e+01 -1.470660000000000078e+00 6.199290000000000411e+00 1.731299999999999883e+01 3.936600000000000099e-01 6.212240000000000428e+00 1.843390000000000128e+01
2.281019999999999825e+00 1.495130000000000070e+00 1.127669999999999995e+01 5.164900000000000047e-01 5.801490000000000258e+00 1.099690000000000012e+01 6.874489999999999768e+00 1.758219999999999894e+00 1.107890000000000086e+01 4.741719999999999935e+00 5.939199999999999591e+00 1.245190000000000019e+01 1.015390000000000015e+00 6.901550000000000296e+00 1.536860000000000070e+01 7.080479999999999663e+00 2.543010000000000215e+00 1.581090000000000018e+01 4.488859999999999850e+00 3.308749999999999858e+00 1.847409999999999997e+01 2.568649999999999878e+00 3.421429999999999971e+00 1.545650000000000013e+01 3.590499999999999803e-01 5.593799999999999883e-01 9.759539999999999438e+00 -1.770429999999999948e+00 4.449499999999999567e+00 1.096969999999999956e+01 4.509769999999999612e+00 9.276699999999999946e-01 9.851419999999999177e+00 2.642980000000000107e+00 4.441110000000000113e+00 1.083670000000000044e+01 1.986939999999999928e+00 8.986800000000000344e-01 1.360570000000000057e+01 2.994899999999999785e-01 4.384500000000000064e+00 1.455550000000000033e+01 7.228390000000000093e+00 8.858099999999999863e-01 1.347899999999999920e+01 4.695140000000000313e+00 4.765369999999999884e+00 1.479630000000000045e+01 -2.527660000000000018e+00 5.729919999999999902e+00 1.882260000000000133e+01 6.660610000000000142e+00 1.573800000000000088e+00 1.816329999999999956e+01 3.540709999999999802e+00 5.913710000000000022e+00 1.871189999999999998e+01 2.793950000000000156e+00 1.655890000000000084e+00 1.730219999999999914e+01
2.412600000000000022e-01 2.026499999999999968e+00 9.355850000000000222e+00 -1.561500000000000110e-01 4.518430000000000391e+00 1.244340000000000046e+01 4.366499999999999826e-01 5.950899999999999856e+00 9.222310000000000230e+00 3.307819999999999983e+00 4.131459999999999688e+00 1.030199999999999960e+01 -5.748999999999999666e-01 6.019820000000000171e+00 4.541000000000000036e-01 4.728279999999999816e+00 2.592979999999999841e+00 1.738149999999999906e+01 2.434520000000000017e+00 1.730790000000000051e+00 1.372799999999999976e+01 1.939449999999999896e+00 5.481309999999999683e+00 1.626229999999999976e+01 3.044939999999999980e+00 6.039500000000000313e+00 8.550810000000000244e+00 4.239530000000000243e+00 4.542399999999999771e-01 1.182830000000000048e+01 -1.394099999999999895e+00 4.330180000000000362e+00 9.575369999999999493e+00 2.626720000000000166e+00 2.337369999999999948e+00 8.534580000000000055e+00 -9.369999999999999857e-03 1.885899999999999910e+00 1.249080000000000013e+01 -2.829999999999999738e-01 5.437000000000000277e+00 1.513250000000000028e+01 -5.001200000000000090e-01 1.213170000000000082e+00 1.633840000000000003e+01 3.625100000000000211e+00 3.938190000000000079e+00 1.284720000000000084e+01 -1.285020000000000051e+00 5.595550000000000246e+00 1.818179999999999907e+01 5.042299999999999560e-01 1.550010000000000110e+00 1.662719999999999976e+00 2.249610000000000110e+00 3.103349999999999831e+00 1.692370000000000019e+01 5.694659999999999833e+00 8.529799999999999605e-01 1.371510000000000007e+00
1.952739999999999920e+00 2.196969999999999867e+00 1.173920000000000030e+01 3.501799999999999913e-01 6.288990000000000080e+00 1.116639999999999944e+01 -1.375660000000000105e+00 2.452630000000000088e+00 1.101820000000000022e+01 4.343449999999999811e+00 5.819960000000000022e+00 1.152749999999999986e+01 1.911669999999999980e+00 7.077460000000000306e+00 1.786970000000000169e+01 3.557770000000000099e+00 3.551940000000000097e+00 1.886609999999999943e+01 4.953050000000000175e+00 1.250070000000000014e+00 1.424789999999999957e+01 2.151489999999999903e+00 4.805559999999999832e+00 1.463429999999999964e+01 4.922199999999999909e-01 6.245199999999999640e-01 1.023140000000000072e+01 -1.902859999999999996e+00 4.884290000000000020e+00 1.024789999999999957e+01 4.706520000000000259e+00 1.259730000000000016e+00 1.009520000000000017e+01 2.478769999999999918e+00 4.432000000000000384e+00 1.049249999999999972e+01 2.374979999999999869e+00 2.152940000000000076e+00 1.417500000000000071e+01 1.671600000000000030e-01 6.276860000000000106e+00 1.396700000000000053e+01 -1.254520000000000080e+00 2.380599999999999827e+00 1.367779999999999951e+01 4.561359999999999637e+00 5.383890000000000065e+00 1.405330000000000013e+01 1.222159999999999913e+00 4.920510000000000161e+00 1.693909999999999982e+01 1.175140000000000073e+00 7.363360000000000127e+00 3.130600000000000049e-01 7.817149999999999821e+00 3.905000000000000138e-02 1.973389999999999844e+01 4.609250000000000291e+00 1.628209999999999935e+00 1.671969999999999956e+01
1.955920000000000103e+00 1.205240000000000089e+00 1.173440000000000083e+01 9.772000000000000131e-02 5.005320000000000213e+00 1.148349999999999937e+01 5.924850000000000172e+00 1.394719999999999960e+00 1.171289999999999942e+01 4.360490000000000421e+00 5.048989999999999867e+00 1.189010000000000034e+01 2.894300000000000206e-01 2.288699999999999901e-01 1.652659999999999840e+01 -1.885539999999999994e+00 3.532770000000000188e+00 1.588589999999999947e+01 1.882800000000000029e-01 7.328789999999999694e+00 1.598450000000000060e+01 1.703340000000000076e+00 3.872380000000000155e+00 1.540210000000000079e+01 3.757289999999999797e+00 7.388099999999999667e+00 1.065429999999999922e+01 -1.960509999999999975e+00 3.803510000000000169e+00 1.051759999999999984e+01 3.976560000000000095e+00 1.911299999999999943e-01 1.024859999999999971e+01 2.239570000000000061e+00 3.868219999999999992e+00 1.048049999999999926e+01 1.966970000000000107e+00 1.398360000000000047e+00 1.444710000000000072e+01 -3.419200000000000017e-01 5.340629999999999988e+00 1.400810000000000066e+01 6.235660000000000203e+00 1.312640000000000029e+00 1.438850000000000051e+01 3.988370000000000193e+00 5.123579999999999579e+00 1.461219999999999963e+01 1.137900000000000023e-01 3.450210000000000221e+00 1.767340000000000089e+01 6.113319999999999865e+00 2.725249999999999950e+00 1.833620000000000161e+01 -2.067919999999999980e+00 5.971639999999999837e+00 1.763670000000000115e+01 3.031899999999999817e+00 7.763799999999999590e-01 1.826679999999999993e+01
4.424559999999999604e+00 1.389410000000000034e+00 9.739660000000000650e+00 6.942120000000000068e+00 3.963470000000000049e+00 1.417200000000000060e+01 1.233870000000000022e+00 1.121490000000000098e+00 1.031259999999999977e+01 8.349299999999999500e+00 2.200839999999999907e+00 1.050350000000000072e+01 2.792479999999999851e+00 1.450200000000000100e-01 1.400600000000000023e+01 6.303969999999999629e+00 6.374100000000000321e-01 1.623910000000000053e+01 -1.272410000000000041e+00 2.766379999999999839e+00 1.676849999999999952e+01 7.730389999999999873e+00 2.983410000000000117e+00 5.568899999999999961e-01 2.434769999999999879e+00 1.731160000000000032e+00 8.243349999999999511e+00 -7.870300000000000074e-01 3.055860000000000021e+00 1.111979999999999968e+01 6.782969999999999722e+00 6.460900000000000531e-01 9.213649999999999451e+00 1.028740999999999950e+01 7.299999999999999632e-04 9.451200000000000045e+00 3.040620000000000100e+00 2.068709999999999827e+00 1.229119999999999990e+01 5.509859999999999758e+00 3.203689999999999927e+00 1.625329999999999941e+01 7.475030000000000285e+00 8.319999999999999618e-01 1.326549999999999940e+01 2.552800000000000069e-01 5.402599999999999625e-01 1.493609999999999971e+01 1.585990000000000011e+00 3.293530000000000069e+00 1.577800000000000047e+01 8.276030000000000442e+00 1.430180000000000007e+00 1.786220000000000141e+01 -9.401899999999999702e-01 3.527219999999999800e+00 1.378039999999999932e+00 -1.242469999999999963e+00 3.738570000000000171e+00 1.903960000000000008e+01
1.336449999999999916e+00 3.103369999999999962e+00 1.108530000000000015e+01 4.860109999999999708e+00 4.843079999999999607e+00 1.072869999999999990e+01 3.377479999999999816e+00 1.523249999999999993e+00 8.417049999999999699e+00 6.566659999999999719e+00 6.758600000000000163e-01 9.819760000000000488e+00 2.637809999999999988e+00 6.045110000000000205e+00 1.406889999999999974e+00 5.791570000000000107e+00 3.781709999999999905e+00 1.825979999999999848e+01 3.387789999999999857e+00 5.901899999999999924e-01 1.660379999999999967e+01 2.073869999999999880e+00 4.064809999999999590e+00 1.726679999999999993e+01 7.369200000000000195e+00 5.932500000000000107e+00 8.234870000000000800e+00 2.990330000000000155e+00 9.813800000000000301e-01 1.124990000000000023e+01 4.610219999999999985e+00 4.246529999999999916e+00 8.357469999999999288e+00 7.451600000000000446e-01 1.466110000000000024e+00 7.835219999999999629e+00 6.336090000000000444e+00 2.842049999999999965e+00 1.173450000000000060e+01 7.162480000000000402e+00 4.411010000000000097e+00 1.600649999999999906e+01 4.147260000000000169e+00 5.922500000000000320e+00 1.826500000000000057e+01 2.183110000000000106e+00 5.237370000000000303e+00 1.205809999999999960e+01 2.160309999999999953e+00 3.596839999999999815e+00 1.993560000000000088e+01 7.790499999999999758e+00 5.426789999999999559e+00 1.940919999999999845e+01 2.933219999999999938e+00 2.607600000000000140e+00 1.513400000000000034e+01 5.000379999999999825e+00 1.227030000000000065e+00 1.876269999999999882e+01
1.875729999999999897e+00 1.567090000000000094e+00 1.133890000000000065e+01 -1.464699999999999891e-01 4.861749999999999794e+00 1.082510000000000083e+01 6.362519999999999953e+00 8.646500000000000297e-01 1.194539999999999935e+01 4.549030000000000129e+00 4.931549999999999656e+00 1.163349999999999973e+01 4.449830000000000396e+00 6.963189999999999991e+00 1.574760000000000026e+01 -1.903950000000000031e+00 3.558739999999999792e+00 1.609809999999999874e+01 -3.835000000000000214e-02 7.162029999999999674e+00 1.559750000000000014e+01 2.573059999999999903e+00 3.273499999999999854e+00 1.605420000000000158e+01 8.511120000000000019e+00 1.038700000000000040e-01 1.061819999999999986e+01 6.502690000000000303e+00 3.383039999999999825e+00 1.067980000000000018e+01 4.085499999999999687e+00 3.278999999999999970e-02 1.111730000000000018e+01 2.211689999999999934e+00 3.978619999999999823e+00 1.064669999999999916e+01 2.247869999999999813e+00 1.258280000000000065e+00 1.436389999999999922e+01 3.500599999999999823e-01 4.637470000000000425e+00 1.492060000000000031e+01 6.600880000000000081e+00 1.030520000000000103e+00 1.448579999999999934e+01 4.803090000000000082e+00 4.811550000000000438e+00 1.422090000000000032e+01 -5.353999999999999732e-02 8.273800000000000043e-01 1.786270000000000024e+01 5.052719999999999878e+00 4.902639999999999887e+00 1.767879999999999896e+01 4.418770000000000309e+00 7.323699999999999655e-01 1.820589999999999975e+01 3.666459999999999830e+00 2.631470000000000198e+00 1.847769999999999868e+01
1.989430000000000032e+00 1.066149999999999931e+00 1.103490000000000038e+01 3.815299999999999803e-01 4.292589999999999684e+00 1.117469999999999963e+01 5.223740000000000272e+00 1.167839999999999989e+00 1.248859999999999992e+01 4.463630000000000209e+00 4.516869999999999941e+00 1.133000000000000007e+01 3.878169999999999895e+00 5.942309999999999981e+00 1.729080000000000084e+01 5.170149999999999579e+00 3.245800000000000018e+00 1.790670000000000073e+01 -3.787900000000000156e-01 6.644940000000000069e+00 1.500910000000000011e+01 2.376419999999999977e+00 4.351759999999999629e+00 1.444570000000000043e+01 3.857959999999999834e+00 6.781539999999999679e+00 1.034309999999999974e+01 6.317199999999999704e+00 2.728600000000000136e+00 1.071349999999999980e+01 3.403200000000000114e-01 6.913509999999999600e+00 1.024929999999999986e+01 2.661080000000000112e+00 3.615130000000000177e+00 9.829679999999999751e+00 2.211199999999999832e+00 1.586589999999999945e+00 1.365029999999999966e+01 -2.228700000000000125e-01 4.242919999999999803e+00 1.372029999999999994e+01 6.188290000000000290e+00 1.015800000000000036e-01 1.506310000000000038e+01 4.702210000000000001e+00 4.443710000000000271e+00 1.385289999999999999e+01 2.225550000000000139e+00 6.410149999999999793e+00 1.928239999999999910e+01 -1.591990000000000016e+00 6.069350000000000023e+00 1.743370000000000175e+01 5.769529999999999603e+00 1.647580000000000044e+00 1.982570000000000121e+01 2.389339999999999797e+00 3.807240000000000180e+00 1.722779999999999845e+01
-3.205600000000000116e-01 1.614400000000000057e+00 9.840709999999999624e+00 -1.240469999999999962e+00 4.343060000000000365e+00 1.333440000000000047e+01 -3.246200000000000196e-01 5.931370000000000253e+00 8.830579999999999430e+00 3.427049999999999930e+00 3.953409999999999869e+00 9.772700000000000387e+00 2.873920000000000030e+00 7.461600000000000454e-01 2.238259999999999916e+00 -1.907119999999999926e+00 3.611470000000000180e+00 1.800110000000000099e+01 2.997759999999999980e+00 1.474450000000000038e+00 1.375639999999999930e+01 2.069840000000000124e+00 5.712279999999999802e+00 1.584999999999999964e+01 2.312840000000000007e+00 5.715209999999999901e+00 8.359690000000000509e+00 -7.653999999999999693e-01 6.221070000000000100e+00 1.171490000000000009e+01 -1.519309999999999938e+00 3.692849999999999966e+00 8.778829999999999245e+00 2.144600000000000062e+00 1.688660000000000050e+00 8.188570000000000348e+00 9.007999999999999341e-02 2.249659999999999993e+00 1.235950000000000060e+01 -5.288800000000000168e-01 5.644449999999999967e+00 1.549380000000000024e+01 -2.838700000000000112e-01 1.825399999999999912e+00 1.681579999999999941e+01 3.257680000000000131e+00 3.866550000000000153e+00 1.243619999999999948e+01 8.988000000000000156e-02 4.845010000000000261e+00 1.870050000000000168e+01 6.633599999999999497e-01 1.035239999999999938e+00 6.307300000000000129e-01 3.108140000000000125e+00 3.414620000000000211e+00 1.594699999999999918e+01 -1.064500000000000002e+00 2.553729999999999833e+00 4.135499999999999732e-01
2.183850000000000069e+00 1.259630000000000027e+00 1.095710000000000051e+01 2.031399999999999872e-01 4.734060000000000379e+00 1.158849999999999980e+01 6.259940000000000282e+00 1.176830000000000043e+00 1.162589999999999968e+01 4.371859999999999857e+00 5.450859999999999594e+00 1.182479999999999976e+01 2.685909999999999798e+00 8.802100000000000479e-01 1.813789999999999836e+01 5.495890000000000164e+00 3.905850000000000044e+00 1.783429999999999893e+01 4.878940000000000055e+00 1.478499999999999925e+00 1.533619999999999983e+01 1.990310000000000024e+00 3.304170000000000051e+00 1.480809999999999960e+01 7.309000000000000219e-02 2.642900000000000249e-01 9.796879999999999811e+00 -1.879599999999999937e+00 3.658110000000000195e+00 1.064470000000000027e+01 4.280380000000000074e+00 9.354999999999999427e-02 9.977019999999999555e+00 2.535369999999999902e+00 3.878369999999999873e+00 1.019139999999999979e+01 2.324710000000000054e+00 9.032000000000000028e-01 1.374579999999999913e+01 2.615999999999999923e-02 4.587030000000000385e+00 1.408939999999999948e+01 6.763349999999999973e+00 3.075600000000000001e-01 1.382740000000000080e+01 4.513279999999999959e+00 3.924310000000000187e+00 1.448390000000000022e+01 -8.311800000000000299e-01 1.697109999999999896e+00 1.729279999999999973e+01 5.252399999999999736e+00 7.246000000000000218e-01 1.816679999999999851e+01 -2.785660000000000025e+00 6.013150000000000439e+00 1.962709999999999866e+01 1.367439999999999989e+00 2.626139999999999919e+00 1.726810000000000045e+01
2.167009999999999881e+00 2.415109999999999868e+00 1.107729999999999926e+01 -4.091099999999999737e-01 5.676009999999999778e+00 1.195700000000000074e+01 6.028270000000000017e+00 2.234579999999999789e+00 1.164710000000000001e+01 3.823300000000000143e+00 6.157790000000000319e+00 1.101350000000000051e+01 1.506440000000000001e+00 6.466529999999999667e+00 1.780219999999999914e+01 5.429890000000000327e+00 2.598360000000000003e+00 1.863230000000000075e+01 3.920889999999999986e+00 9.887700000000000378e-01 1.477100000000000080e+01 2.935070000000000068e+00 4.627519999999999634e+00 1.466929999999999978e+01 9.818000000000000338e-02 1.429049999999999931e+00 1.007259999999999955e+01 -2.058530000000000193e+00 4.623520000000000074e+00 1.006400000000000006e+01 4.283260000000000289e+00 9.255200000000000093e-01 1.011430000000000007e+01 1.763509999999999911e+00 4.945610000000000284e+00 1.016109999999999935e+01 1.805129999999999901e+00 2.344800000000000217e+00 1.365210000000000079e+01 1.810700000000000087e-01 5.758429999999999715e+00 1.468820000000000014e+01 5.963919999999999888e+00 2.493900000000000006e+00 1.428999999999999915e+01 -3.406149999999999789e+00 6.194950000000000401e+00 1.346770000000000067e+01 2.038790000000000102e+00 4.133289999999999687e+00 1.738919999999999888e+01 2.312599999999999933e-01 2.057960000000000012e+00 1.890930000000000177e+01 6.954180000000000028e+00 4.551899999999999835e-01 1.977759999999999962e+01 3.584220000000000184e+00 7.546800000000000175e-01 1.733239999999999981e+01
1.850149999999999961e+00 1.562519999999999909e+00 1.150089999999999968e+01 -5.341599999999999682e-01 5.093580000000000219e+00 1.187570000000000014e+01 6.357619999999999827e+00 1.192469999999999919e+00 1.201989999999999981e+01 4.036400000000000432e+00 4.803359999999999630e+00 1.153020000000000067e+01 6.145300000000000207e-01 8.305099999999999705e-01 1.723010000000000019e+01 5.933860000000000134e+00 3.841400000000000148e+00 1.568410000000000082e+01 4.324390000000000178e+00 5.095100000000000184e-01 1.583949999999999925e+01 2.409409999999999830e+00 3.978349999999999831e+00 1.519490000000000052e+01 8.410769999999999413e+00 1.357599999999999918e-01 1.064470000000000027e+01 6.247609999999999886e+00 3.556200000000000028e+00 1.072359999999999935e+01 4.120370000000000310e+00 1.975699999999999956e-01 1.085139999999999993e+01 1.862179999999999946e+00 3.845120000000000093e+00 1.049349999999999916e+01 2.481609999999999872e+00 1.589040000000000008e+00 1.409479999999999933e+01 -1.219999999999999973e-01 5.106609999999999872e+00 1.445989999999999931e+01 6.636009999999999742e+00 9.009800000000000031e-01 1.456140000000000079e+01 4.674710000000000143e+00 5.537969999999999615e+00 1.421899999999999942e+01 2.658150000000000013e+00 6.502629999999999910e+00 1.800329999999999941e+01 -1.153710000000000013e+00 3.161939999999999973e+00 1.795250000000000057e+01 8.857500000000000373e-01 4.703680000000000305e+00 1.770710000000000051e+01 3.804790000000000116e+00 2.720709999999999962e+00 1.721679999999999922e+01
2.404669999999999863e+00 1.429130000000000011e+00 1.225549999999999962e+01 -1.036600000000000021e-01 5.238699999999999690e+00 1.153190000000000026e+01 6.799959999999999560e+00 1.236720000000000041e+00 1.188719999999999999e+01 4.377139999999999809e+00 5.311849999999999739e+00 1.119790000000000063e+01 -3.822290000000000187e+00 7.033129999999999882e+00 1.674109999999999943e+01 -2.337950000000000195e+00 4.248120000000000118e+00 1.491050000000000075e+01 4.658689999999999998e+00 2.062400000000000067e-01 1.542789999999999928e+01 2.301750000000000185e+00 4.189280000000000115e+00 1.564809999999999945e+01 -7.320000000000000118e-03 8.559999999999999554e-02 1.083539999999999992e+01 6.654480000000000395e+00 3.887370000000000214e+00 1.099830000000000041e+01 4.438410000000000188e+00 1.559999999999999928e-02 1.119050000000000011e+01 2.074260000000000215e+00 3.799999999999999822e+00 1.115240000000000009e+01 2.268450000000000077e+00 1.253889999999999949e+00 1.494880000000000031e+01 1.028400000000000009e-01 5.462559999999999860e+00 1.445770000000000088e+01 7.174280000000000435e+00 1.348190000000000000e+00 1.469630000000000081e+01 4.428289999999999615e+00 5.548739999999999561e+00 1.401559999999999917e+01 6.422700000000000076e-01 1.421189999999999953e+00 1.833830000000000027e+01 5.062129999999999797e+00 4.703850000000000087e+00 1.708200000000000074e+01 -1.007279999999999953e+00 6.917910000000000004e+00 1.752199999999999847e+01 2.343739999999999934e+00 2.142419999999999991e+00 1.752769999999999939e+01
2.981650000000000134e+00 1.247880000000000100e+00 1.114010000000000034e+01 4.462599999999999900e-01 5.223650000000000126e+00 1.162940000000000040e+01 7.033489999999999576e+00 1.329760000000000053e+00 1.146870000000000012e+01 4.937229999999999563e+00 5.810270000000000046e+00 1.179100000000000037e+01 3.811409999999999965e+00 9.962699999999999889e-01 1.631579999999999941e+01 -1.363590000000000080e+00 4.414349999999999774e+00 1.516939999999999955e+01 4.157390000000000363e+00 3.585059999999999913e+00 1.860140000000000171e+01 2.359230000000000160e+00 3.677659999999999929e+00 1.435350000000000037e+01 5.155100000000000238e-01 2.553000000000000269e-01 1.044860000000000078e+01 -1.905990000000000073e+00 4.442359999999999864e+00 1.069650000000000034e+01 4.962180000000000035e+00 4.191000000000000281e-02 1.014949999999999974e+01 2.653129999999999988e+00 3.885559999999999903e+00 1.080799999999999983e+01 2.498470000000000191e+00 1.045299999999999896e+00 1.386509999999999998e+01 1.038859999999999895e+00 5.910129999999999661e+00 1.424080000000000013e+01 6.389780000000000015e+00 1.489600000000000035e+00 1.408719999999999928e+01 4.847240000000000215e+00 5.355279999999999596e+00 1.427139999999999986e+01 -3.249260000000000037e+00 5.894630000000000258e+00 1.930199999999999960e+01 5.897179999999999644e+00 1.936879999999999935e+00 1.779919999999999902e+01 3.176390000000000047e+00 6.090980000000000061e+00 1.889979999999999905e+01 1.873490000000000100e+00 3.025920000000000165e+00 1.693299999999999983e+01
1.673399999999999999e+00 1.494850000000000012e+00 1.230250000000000021e+01 -6.408399999999999652e-01 5.762640000000000207e+00 1.176660000000000039e+01 6.426499999999999879e+00 1.614970000000000017e+00 1.175689999999999991e+01 3.777039999999999953e+00 5.381129999999999747e+00 1.176829999999999998e+01 -4.176650000000000418e+00 7.644420000000000215e+00 1.695240000000000080e+01 -2.412110000000000198e+00 4.256890000000000285e+00 1.472269999999999968e+01 5.147789999999999644e+00 6.487699999999999578e-01 1.543829999999999991e+01 2.230020000000000113e+00 3.698399999999999910e+00 1.550539999999999985e+01 8.444029999999999703e+00 5.308000000000000218e-02 1.073189999999999955e+01 6.006590000000000096e+00 4.367219999999999658e+00 1.068069999999999986e+01 3.998709999999999987e+00 3.465900000000000092e-01 1.100430000000000064e+01 1.498609999999999998e+00 4.096350000000000158e+00 1.111700000000000088e+01 2.506450000000000067e+00 1.292620000000000102e+00 1.493709999999999916e+01 2.179999999999999993e-02 5.660190000000000055e+00 1.462110000000000021e+01 7.625829999999999664e+00 1.587869999999999893e+00 1.431279999999999930e+01 4.157199999999999562e+00 5.582239999999999647e+00 1.437720000000000020e+01 6.053759999999999586e+00 4.521399999999999864e+00 1.752080000000000126e+01 4.635290000000000354e+00 2.904259999999999842e+00 1.724230000000000018e+01 7.580200000000000271e-01 7.189280000000000115e+00 1.783889999999999887e+01 1.240949999999999998e+00 5.208120000000000083e+00 1.747739999999999938e+01
2.292489999999999917e+00 1.305150000000000032e+00 1.164109999999999978e+01 -2.098700000000000010e-01 4.830259999999999998e+00 1.155530000000000079e+01 6.544579999999999842e+00 1.263309999999999933e+00 1.083719999999999928e+01 4.648320000000000007e+00 4.649200000000000443e+00 1.231150000000000055e+01 2.888409999999999922e+00 1.235360000000000014e+00 1.863070000000000093e+01 6.042159999999999975e+00 3.531060000000000088e+00 1.855199999999999960e+01 4.888259999999999827e+00 4.675400000000000111e-01 1.476970000000000027e+01 2.081440000000000179e+00 3.599590000000000067e+00 1.449339999999999939e+01 -3.474330000000000140e+00 6.679050000000000153e+00 1.039540000000000042e+01 6.201909999999999812e+00 3.708120000000000083e+00 1.035040000000000049e+01 4.227759999999999962e+00 1.839099999999999902e-01 9.978040000000000020e+00 2.375700000000000145e+00 3.753460000000000019e+00 1.093939999999999912e+01 2.109849999999999781e+00 9.488299999999999512e-01 1.428299999999999947e+01 -2.159699999999999953e-01 4.651690000000000325e+00 1.415140000000000065e+01 6.812129999999999797e+00 5.882500000000000506e-01 1.330990000000000073e+01 4.538700000000000401e+00 3.966689999999999827e+00 1.472940000000000005e+01 -1.439499999999999946e-01 1.398349999999999982e+00 1.602570000000000050e+01 5.372379999999999711e+00 1.096789999999999932e+00 1.740249999999999986e+01 -3.254300000000000193e+00 5.876520000000000188e+00 1.908220000000000027e+01 1.349239999999999995e+00 2.896799999999999820e+00 1.747779999999999845e+01