6.918720753637984444e+00 -4.630965463050669584e+00 4.062385791605440666e+00 -4.630965463050669584e+00 1.525138830642404031e+01 3.726289095704836907e+00 4.062385791605440666e+00 3.726289095704836907e+00 1.224287636686054981e+01
1.266535626441501305e+00 -1.898850729225552314e+00 7.429164828586496405e-01 -1.898850729225552314e+00 -6.752179070471723499e+00 -8.932628867115744997e-01 7.429164828586496405e-01 -8.932628867115744997e-01 -2.040824350070471027e+00
6.954773474086628049e+00 3.930807406289277273e-02 4.353191146047056037e+00 3.930807406289277273e-02 6.018595220957599246e+00 1.692918030979154276e+00 4.353191146047056037e+00 1.692918030979154276e+00 5.641149529632375703e+00
-5.780209149550363357e+00 -3.367179244299181029e-01 -4.369287887927781888e-01 -3.367179244299181029e-01 -6.527540160085397503e+00 -2.301362897801430218e+00 -4.369287887927781888e-01 -2.301362897801430218e+00 1.334093691968908091e-01
8.991983427382235661e+00 9.420096249216399542e+00 1.917774703673758241e+00 9.420096249216399542e+00 9.060847054021412106e+00 -1.150777359329334004e+00 1.917774703673758241e+00 -1.150777359329334004e+00 1.650589970702391440e+00
7.112651350481602464e+00 5.251699593948588429e+00 1.690589682997857945e+00 5.251699593948588429e+00 2.256056973805365740e+00 8.447460842527174663e-01 1.690589682997857945e+00 8.447460842527174663e-01 8.777611751388789685e+00
1.867724821412029668e+00 3.384702119568771650e+00 -1.197745775354548625e+00 3.384702119568771650e+00 -4.523296081542563130e+00 4.303564199801726553e-01 -1.197745775354548625e+00 4.303564199801726553e-01 -6.398375656824291546e+00
-4.032419767848373304e+00 5.555369608097040057e+00 -1.043451551403556499e+00 5.555369608097040057e+00 -3.390447839284159048e+00 3.462295612333185169e+00 -1.043451551403556499e+00 3.462295612333185169e+00 -3.215360363531973853e+00
2.767391152721558445e+00 4.292099222358566335e-01 1.187840476060050277e+00 4.292099222358566335e-01 2.674071594268105034e+00 -3.495686374429258780e+00 1.187840476060050277e+00 -3.495686374429258780e+00 -2.904209210885619452e+00
8.586942139576414945e+00 -3.819404456964964556e+00 7.855623062585751493e-01 -3.819404456964964556e+00 1.595197873567193625e+01 3.919055453159916880e+00 7.855623062585751493e-01 3.919055453159916880e+00 3.962343661735641565e+00
3.675615882901253961e+00 7.090886885262425166e-01 2.522806321645118643e+00 7.090886885262425166e-01 7.135019482373407662e+00 1.797553813334991757e+00 2.522806321645118643e+00 1.797553813334991757e+00 2.440093908170591686e+00
5.597776522399613430e-01 -2.390486521207876081e+00 -9.613547872166318120e-01 -2.390486521207876081e+00 3.520044387477333725e+00 -5.656088599757806534e+00 -9.613547872166318120e-01 -5.656088599757806534e+00 -3.395549645569980068e+00
3.481442643695916495e+00 -2.637291925877002452e+00 2.086864439314189745e+00 -2.637291925877002452e+00 -1.572409772739340461e+00 -1.934514241159932091e+00 2.086864439314189745e+00 -1.934514241159932091e+00 -7.235976828580056974e+00
-1.969509138928552172e+00 5.021195836870116835e+00 2.466635361918564584e+00 5.021195836870116835e+00 5.608471900725634507e-01 2.760470568721112183e+00 2.466635361918564584e+00 2.760470568721112183e+00 -7.914807809721911447e+00
-4.460198432985809980e+00 2.858541895440758207e-01 1.137447608866740012e+00 2.858541895440758207e-01 -9.825391875316666912e-01 -3.696335079662413925e-01 1.137447608866740012e+00 -3.696335079662413925e-01 -3.762285182781178960e+00
1.600679693687610872e+00 9.193546776626592143e-01 -4.164123462140455700e+00 9.193546776626592143e-01 3.477726678827251838e+00 -2.714927595583208397e+00 -4.164123462140455700e+00 -2.714927595583208397e+00 6.861000497062349268e+00
1.617562241871922657e+00 -3.632340763631020764e+00 -3.716093599095877664e-01 -3.632340763631020764e+00 -7.381775140466798391e+00 2.648470448171200142e-01 -3.716093599095877664e-01 2.648470448171200142e-01 -4.694952775616835439e+00
-4.714420793645282437e+00 1.912201069540385268e+00 -1.555635424068966932e+00 1.912201069540385268e+00 6.755486482605206788e+00 3.583409795664964648e+00 -1.555635424068966932e+00 3.583409795664964648e+00 -8.085221195158303065e-01
1.149226240684206646e+00 -3.570435538484809435e+00 -2.067238490719788935e+00 -3.570435538484809435e+00 3.550786284961020556e+00 -6.756763154413705230e-01 -2.067238490719788935e+00 -6.756763154413705230e-01 1.293673034299926139e-02
-3.805424340005866934e+00 -3.088862919186980971e+00 3.600066270533696322e+00 -3.088862919186980971e+00 -1.068163384640794078e+00 1.184081332286076815e+00 3.600066270533696322e+00 1.184081332286076815e+00 -2.217167909247777846e+00
-4.048271558794571234e+00 2.337389004230513212e+00 -2.658131959540734890e+00 2.337389004230513212e+00 -3.241562954230365445e+00 -3.750263927470351977e-01 -2.658131959540734890e+00 -3.750263927470351977e-01 -9.666230946034108484e+00
1.414525361857273289e+01 -1.161074840309068268e+00 5.340298030149168707e-01 -1.161074840309068268e+00 1.417098001514599481e+01 -4.939435338245715124e-02 5.340298030149168707e-01 -4.939435338245715124e-02 5.629840955688108828e+00
-5.819476333131349932e+00 3.117392866027728360e+00 4.136388188487540862e-01 3.117392866027728360e+00 -6.584421116807069652e+00 1.918655896224786606e+00 4.136388188487540862e-01 1.918655896224786606e+00 -9.809789851080974898e+00
-1.605820266702582044e+00 -2.517174678297591672e+00 2.488894119345782807e-01 -2.517174678297591672e+00 -7.632172496206851342e+00 -2.057450073664592871e+00 2.488894119345782807e-01 -2.057450073664592871e+00 -7.099082383568435795e+00
4.840363064771506352e+00 -5.085017846482970505e+00 1.092275188712403367e+00 -5.085017846482970505e+00 4.469041224326065986e+00 6.735524851562805893e+00 1.092275188712403367e+00 6.735524851562805893e+00 9.960202342255366048e+00
3.099162117207817868e+00 1.442159983550148850e+00 -5.841891905869395218e-01 1.442159983550148850e+00 -1.365657895133225219e+00 -3.966848958391672397e+00 -5.841891905869395218e-01 -3.966848958391672397e+00 4.164557247647604932e+00
-6.871825874489625896e+00 -6.934478106851734713e-01 1.462234598236778593e+00 -6.934478106851734713e-01 -2.399457456337257710e+00 -7.203094564869214622e-01 1.462234598236778593e+00 -7.203094564869214622e-01 -3.865790721048893097e+00
-2.925506450735214425e+00 1.801774203324352230e+00 1.007469344673793454e+00 1.801774203324352230e+00 -8.988567752357015550e+00 -7.424504008734250649e-01 1.007469344673793454e+00 -7.424504008734250649e-01 -1.210676128379269745e+00
3.422382077431117331e+00 -6.174975287979715954e-01 -7.642122667929496238e-01 -6.174975287979715954e-01 1.151317664297722754e+00 3.662740587332498965e+00 -7.642122667929496238e-01 3.662740587332498965e+00 3.663037971210323374e+00
3.588585129564193732e+00 1.388534837584449066e+00 9.756655545625717019e-02 1.388534837584449066e+00 2.898407924242016875e+00 1.697481344914385071e+00 9.756655545625717019e-02 1.697481344914385071e+00 2.377874816622667975e+00
8.016782186154948420e+00 1.523032471428678258e+00 2.483555347847696382e+00 1.523032471428678258e+00 2.986696696087822733e+00 -7.440391576536822260e-01 2.483555347847696382e+00 -7.440391576536822260e-01 3.619974303640634439e+00
1.526373756901446832e+00 2.292837460246389014e+00 1.051282015863686525e-01 2.292837460246389014e+00 -5.777934385590342004e+00 2.401960516086267539e-01 1.051282015863686525e-01 2.401960516086267539e-01 -7.161572609250921317e+00
-7.732388722462384401e+00 3.564088840944657388e+00 4.608016012162290842e+00 3.564088840944657388e+00 -8.370900980748826825e+00 3.463717002312834414e-01 4.608016012162290842e+00 3.463717002312834414e-01 -5.248987051846214946e+00
7.741747778036662808e+00 -5.388383553683555149e+00 -1.380260729919138507e+00 -5.388383553683555149e+00 6.289705905522287033e+00 2.776078589602263502e+00 -1.380260729919138507e+00 2.776078589602263502e+00 5.305491201603143914e+00
2.760464480376204399e+00 -2.828572089619742158e+00 -1.489414674096513735e+00 -2.828572089619742158e+00 -5.487770429056771704e+00 -1.672756167857043508e+00 -1.489414674096513735e+00 -1.672756167857043508e+00 4.343997971304521144e+00
9.655320865642349482e-01 8.987189690830961475e-02 1.845892652885608332e+00 8.987189690830961475e-02 -2.053100200194799996e+00 -3.596795993232687394e+00 1.845892652885608332e+00 -3.596795993232687394e+00 1.025621319569606271e+01
-3.484000310280324086e+00 5.478334491371306125e-01 -3.184002909239366463e+00 5.478334491371306125e-01 -3.480320913761326684e-01 -1.123515541651997740e+00 -3.184002909239366463e+00 -1.123515541651997740e+00 6.631285205175287523e+00
-6.863560250460535528e+00 -9.773728773310281781e-01 4.713677357322147987e-01 -9.773728773310281781e-01 -6.204054688071669155e+00 1.983001926363696876e+00 4.713677357322147987e-01 1.983001926363696876e+00 -6.517921203059622748e+00
-2.335588704662752146e+00 -8.252479628353343033e-01 3.128214986338848203e+00 -8.252479628353343033e-01 -8.106187970885939009e+00 -1.001987771872963284e+00 3.128214986338848203e+00 -1.001987771872963284e+00 2.158146245973502797e+00
-1.308325880085781101e+00 1.578993647843083936e+00 9.718452382500215592e-01 1.578993647843083936e+00 -5.778268771790791014e+00 -3.756083821100487108e-01 9.718452382500215592e-01 -3.756083821100487108e-01 -1.365629086810062631e+01
3.974531546052364916e+00 1.729907225057786713e+00 -5.534399624457055078e-02 1.729907225057786713e+00 -5.899253691825121493e-01 -3.333425259086276737e-01 -5.534399624457055078e-02 -3.333425259086276737e-01 3.434531934293465927e+00
7.154263622277880208e-02 -3.591207553233096483e+00 3.205187697830623517e+00 -3.591207553233096483e+00 6.909071023362090003e+00 -1.903887669077380940e+00 3.205187697830623517e+00 -1.903887669077380940e+00 8.114323899060499556e+00
3.124638163332952967e+00 2.215015896733560030e+00 5.057304930837183576e+00 2.215015896733560030e+00 -8.883794395462521365e+00 5.718220970420356819e-02 5.057304930837183576e+00 5.718220970420356819e-02 2.952126368992917360e+00
-1.789485373277603708e+00 -1.375344882869940832e+00 9.838390844082635089e-01 -1.375344882869940832e+00 8.122646637795337687e-01 3.965022583399631095e+00 9.838390844082635089e-01 3.965022583399631095e+00 1.044786729863882435e+00
2.843280015087658263e+00 3.151073072088196980e+00 -1.956406760154614899e+00 3.151073072088196980e+00 1.064837554049439694e+00 -8.789922238354652695e-01 -1.956406760154614899e+00 -8.789922238354652695e-01 7.042865064889483051e-01
-6.390737554972617751e+00 -1.906863936214449717e+00 -2.986997982225618742e+00 -1.906863936214449717e+00 8.931787832788047332e-01 1.548715242690567928e+00 -2.986997982225618742e+00 1.548715242690567928e+00 -6.047571946752188232e+00
8.258676323323202340e+00 3.245661249593215780e-01 -1.853962742369267558e-01 3.245661249593215780e-01 -8.087687614337314701e-02 1.531901158322761247e-01 -1.853962742369267558e-01 1.531901158322761247e-01 -4.134472040199381304e+00
-7.595715052093130915e+00 4.887052176231795997e+00 1.859093334300004341e-01 4.887052176231795997e+00 -6.889497285706741359e+00 -6.725282707537590943e-01 1.859093334300004341e-01 -6.725282707537590943e-01 -1.119762039234810880e+00
