8.104599999999999582e+00 2.057139999999999969e+00 1.111669999999999980e+01 5.487320000000000420e+00 5.729619999999999713e+00 1.138010000000000055e+01 4.200750000000000206e+00 5.831600000000000117e-01 1.216799999999999926e+01 9.190070000000000405e+00 5.643580000000000041e+00 1.039669999999999916e+01 3.141929999999999890e+00 1.945019999999999971e+00 1.744569999999999865e+01 8.354549999999999699e+00 3.779380000000000184e+00 1.472889999999999944e+01 7.030640000000000001e+00 2.133519999999999861e+00 1.828399999999999892e+01 4.879690000000000083e+00 4.153599999999999959e+00 1.488189999999999991e+01 5.470139999999999780e+00 5.117000000000000021e-02 9.960990000000000677e+00 3.374309999999999921e+00 4.186139999999999972e+00 9.837130000000000152e+00 2.892539999999999889e+00 2.088800000000000101e-01 1.001600000000000001e+01 6.994419999999999860e+00 4.277190000000000047e+00 9.832440000000000069e+00 2.202550000000000008e+00 2.124919999999999920e+00 1.319790000000000063e+01 3.498170000000000002e+00 6.292049999999999699e+00 1.307310000000000016e+01 5.924070000000000391e+00 2.733880000000000088e+00 1.303170000000000073e+01 7.613039999999999807e+00 6.028509999999999813e+00 1.307879999999999932e+01 8.400900000000000034e-01 7.149900000000000144e-01 1.696549999999999869e+01 6.917970000000000397e+00 4.404749999999999943e+00 1.670050000000000168e+01 4.854199999999999626e+00 1.403310000000000057e+00 1.944630000000000081e+01 2.712479999999999780e+00 4.264470000000000205e+00 1.646499999999999986e+01
8.702550000000000452e+00 3.133360000000000145e+00 1.090520000000000067e+01 5.922469999999999679e+00 6.290659999999999918e+00 1.081780000000000008e+01 3.700610000000000177e+00 3.087569999999999926e+00 1.178110000000000035e+01 9.331450000000000244e+00 6.553460000000000285e+00 1.219909999999999961e+01 6.188039999999999985e+00 6.558989999999999654e+00 1.567040000000000077e+01 7.892559999999999576e+00 3.011639999999999873e+00 1.498610000000000042e+01 1.065779999999999994e+01 6.846400000000000041e+00 1.626670000000000016e+01 4.602909999999999613e+00 3.142300000000000093e+00 1.637750000000000128e+01 6.887290000000000134e+00 9.533099999999999907e-01 9.916969999999999175e+00 3.493320000000000203e+00 5.471219999999999750e+00 1.032329999999999970e+01 2.494759999999999867e+00 1.586870000000000003e+00 1.011069999999999958e+01 8.564519999999999911e+00 5.696150000000000269e+00 9.983660000000000423e+00 9.715790000000000148e+00 3.780479999999999841e+00 1.336870000000000047e+01 5.450610000000000177e+00 4.153129999999999988e+00 1.425510000000000055e+01 4.350100000000000300e+00 1.749900000000000067e-01 1.323090000000000011e+01 3.143500000000000183e-01 1.605699999999999905e-01 1.357049999999999912e+01 3.478749999999999787e+00 5.080989999999999895e+00 1.780470000000000041e+01 6.822960000000000136e+00 2.033490000000000020e+00 1.726599999999999824e+01 8.323840000000000572e+00 5.549649999999999750e+00 1.666890000000000072e+01 2.216140000000000221e+00 1.706390000000000073e+00 1.712490000000000023e+01
7.618070000000000341e+00 1.529150000000000009e+00 1.171289999999999942e+01 4.939639999999999809e+00 5.492110000000000269e+00 1.099349999999999916e+01 4.099529999999999674e+00 1.736860000000000070e+00 1.179969999999999963e+01 9.093579999999999330e+00 5.169559999999999711e+00 1.125990000000000002e+01 4.285090000000000288e+00 9.868799999999999795e-01 1.659659999999999869e+01 2.382530000000000037e+00 4.389459999999999695e+00 1.478739999999999988e+01 8.115949999999999775e+00 8.835699999999999665e-01 1.703229999999999933e+01 6.182739999999999903e+00 4.434120000000000061e+00 1.502250000000000085e+01 5.981390000000000207e+00 2.892500000000000071e-01 1.036270000000000024e+01 2.822099999999999831e+00 4.915350000000000108e+00 9.471470000000000056e+00 1.960560000000000080e+00 8.864800000000000457e-01 1.031579999999999941e+01 6.960749999999999993e+00 4.265950000000000131e+00 1.012480000000000047e+01 2.305099999999999927e+00 1.792159999999999975e+00 1.359619999999999962e+01 8.280319999999999681e+00 5.652590000000000003e+00 1.371049999999999969e+01 6.426960000000000228e+00 2.103279999999999816e+00 1.388219999999999921e+01 4.241520000000000401e+00 6.140719999999999956e+00 1.363949999999999996e+01 5.124139999999999695e+00 6.833980000000000388e+00 1.698290000000000077e+01 7.566010000000000346e+00 4.211020000000000429e+00 1.713599999999999923e+01 8.727280000000000371e+00 6.522509999999999586e+00 1.720339999999999847e+01 3.973879999999999857e+00 3.452170000000000183e+00 1.692050000000000054e+01
1.176420000000000021e+00 1.536759999999999904e+00 1.021080000000000076e+01 5.416389999999999816e+00 4.589140000000000441e+00 1.246850000000000058e+01 5.069420000000000037e+00 1.029670000000000085e+00 1.117089999999999961e+01 2.122660000000000213e+00 5.302260000000000417e+00 1.110299999999999976e+01 7.127930000000000099e+00 7.188679999999999737e+00 1.546969999999999956e+01 8.023680000000000589e+00 2.823539999999999939e+00 1.541699999999999982e+01 4.756719999999999615e+00 3.795249999999999790e+00 1.696049999999999969e+01 3.085020000000000095e+00 6.625849999999999795e+00 1.599690000000000012e+01 1.005949000000000026e+01 7.422419999999999796e+00 9.891030000000000655e+00 4.450680000000000192e+00 3.595410000000000217e+00 1.016680000000000028e+01 2.929609999999999825e+00 6.447999999999999565e-02 9.779629999999999157e+00 8.396089999999999165e+00 3.504420000000000091e+00 1.107510000000000083e+01 1.875410000000000021e+00 1.737729999999999997e+00 1.468999999999999950e+01 7.613050000000000317e+00 6.558749999999999858e+00 1.284609999999999985e+01 5.735800000000000232e+00 2.585589999999999833e+00 1.406520000000000081e+01 3.090599999999999792e+00 6.103250000000000064e+00 1.326800000000000068e+01 2.587299999999999933e+00 7.844299999999999606e-01 1.675679999999999836e+01 2.673459999999999948e+00 4.626240000000000130e+00 1.772429999999999950e+01 6.573100000000000165e+00 5.469199999999999617e-01 1.673450000000000060e+01 7.106869999999999798e+00 4.938180000000000014e+00 1.692480000000000118e+01
2.449120000000000186e+00 5.179780000000000051e+00 9.647320000000000562e+00 6.984270000000000422e+00 2.027870000000000061e+00 9.114409999999999457e+00 4.580569999999999808e+00 2.207530000000000214e+00 1.122049999999999947e+01 5.066309999999999647e+00 6.118570000000000064e+00 1.136459999999999937e+01 8.362800000000000011e+00 7.336380000000000123e+00 1.326060000000000016e+01 4.697799999999999976e+00 2.966810000000000169e+00 1.816649999999999920e+01 1.486660000000000093e+00 1.657739999999999991e+00 1.824119999999999919e+01 8.021440000000000126e+00 5.619489999999999874e+00 1.789189999999999969e+01 3.926449999999999996e+00 7.136510000000000353e+00 9.134420000000000428e+00 7.590139999999999887e+00 5.555410000000000181e+00 1.127500000000000036e+01 4.699480000000000324e+00 3.042320000000000135e+00 8.527049999999999130e+00 1.566119999999999957e+00 3.463630000000000209e+00 7.795700000000000074e+00 3.498369999999999980e+00 5.524600000000000399e+00 1.884829999999999828e+01 3.199730000000000185e+00 5.093199999999999950e-01 1.281429999999999936e+01 3.668099999999999916e+00 4.301870000000000083e+00 1.251370000000000005e+01 7.319230000000000125e+00 1.602200000000000069e+00 1.215099999999999980e+01 5.061980000000000146e+00 7.166890000000000427e+00 1.963119999999999976e+01 3.048550000000000093e+00 2.448669999999999902e+00 1.624970000000000070e+01 7.241649999999999920e+00 5.994049999999999656e+00 1.543689999999999962e+01 7.186560000000000059e+00 3.741849999999999898e+00 1.943909999999999982e+01
4.932220000000000049e+00 1.366710000000000091e+00 1.327059999999999995e+01 4.373549999999999827e+00 6.833560000000000301e+00 9.893549999999999400e+00 3.769239999999999924e+00 3.229649999999999910e+00 9.539289999999999381e+00 7.753140000000000143e+00 6.254669999999999952e+00 9.649910000000000210e+00 5.948680000000000412e+00 6.160199999999999676e+00 1.768499999999999872e+01 5.003659999999999997e+00 4.825719999999999565e+00 1.401060000000000016e+01 2.146030000000000104e+00 5.705479999999999663e+00 1.667620000000000147e+01 4.258510000000000240e+00 2.876580000000000137e+00 1.743720000000000070e+01 6.531970000000000276e+00 7.258200000000000207e-01 1.129420000000000002e+01 2.575070000000000192e+00 5.071329999999999671e+00 8.229369999999999408e+00 2.946530000000000094e+00 2.076039999999999885e+00 1.168829999999999991e+01 3.637519999999999865e+00 9.215299999999999603e-01 8.047200000000000131e+00 5.919830000000000148e+00 4.681939999999999991e+00 1.076409999999999911e+01 1.751209999999999933e+00 1.576899999999999968e-01 1.579490000000000016e+01 2.941710000000000047e+00 3.417339999999999822e+00 1.516649999999999920e+01 6.610190000000000232e+00 2.745280000000000165e+00 1.505439999999999934e+01 3.603860000000000063e+00 5.160619999999999763e+00 1.898120000000000118e+01 7.515380000000000393e+00 5.807330000000000325e+00 1.358980000000000032e+01 6.959780000000000300e+00 3.708190000000000097e+00 1.731640000000000157e+01 5.186810000000000365e+00 9.448699999999999877e-01 1.893980000000000175e+01
-2.266809999999999992e+00 7.106720000000000148e+00 1.126420000000000066e+01 -7.842500000000000027e-01 4.038179999999999659e+00 1.081429999999999936e+01 6.466560000000000308e+00 1.343869999999999898e+00 1.252340000000000053e+01 3.695809999999999818e+00 4.154309999999999725e+00 1.172080000000000055e+01 2.635089999999999932e+00 1.936700000000000088e+00 1.585800000000000054e+01 9.496400000000000396e-01 5.849899999999999878e+00 1.553480000000000061e+01 -1.279989999999999961e+00 2.816289999999999960e+00 1.633759999999999835e+01 4.642070000000000363e+00 5.922880000000000145e+00 1.591070000000000029e+01 3.356749999999999901e+00 6.830259999999999998e+00 1.078330000000000055e+01 5.297649999999999970e+00 2.223120000000000207e+00 1.041600000000000037e+01 -6.393600000000000394e-01 6.667440000000000033e+00 9.341049999999999187e+00 1.814840000000000009e+00 2.524540000000000006e+00 1.025000000000000000e+01 -2.299799999999999900e-01 2.600830000000000197e+00 1.389480000000000004e+01 5.451850000000000307e+00 4.627939999999999721e+00 1.373610000000000042e+01 3.781109999999999971e+00 1.500180000000000069e+00 1.268079999999999963e+01 1.479349999999999943e+00 5.905540000000000234e+00 1.300159999999999982e+01 6.491700000000000248e-01 1.017330000000000068e+00 1.748829999999999885e+01 -1.637860000000000094e+00 5.052030000000000243e+00 1.727029999999999887e+01 5.021099999999999675e+00 7.367099999999999760e-01 1.682829999999999870e+01 2.581700000000000106e+00 4.162230000000000096e+00 1.656210000000000093e+01
8.928710000000000591e+00 6.073850000000000193e+00 9.908879999999999910e+00 7.455619999999999692e+00 1.978669999999999929e+00 1.045819999999999972e+01 4.561189999999999856e+00 2.550370000000000026e+00 1.179930000000000057e+01 5.501960000000000406e+00 6.639789999999999637e+00 1.076650000000000063e+01 7.918149999999999800e+00 7.221639999999999837e+00 1.368060000000000009e+01 5.696430000000000327e+00 3.676959999999999784e+00 1.734919999999999973e+01 2.549450000000000216e+00 3.546599999999999753e-01 1.735689999999999955e+01 2.025100000000000122e+00 4.230889999999999596e+00 1.699569999999999936e+01 8.238400000000000167e-01 5.927000000000000324e-02 8.974550000000000693e+00 7.374859999999999971e+00 5.306370000000000253e+00 1.202740000000000009e+01 4.767809999999999881e+00 8.221899999999999764e-01 9.499489999999999768e+00 8.547040000000000859e+00 3.783929999999999794e+00 9.014310000000000045e+00 3.628530000000000033e+00 4.642570000000000086e+00 1.920720000000000027e+01 2.738500000000000156e+00 1.260650000000000048e+00 1.278780000000000072e+01 3.343420000000000059e+00 4.874349999999999739e+00 1.184229999999999983e+01 6.793429999999999858e+00 1.652320000000000011e+00 1.318520000000000003e+01 3.737779999999999880e+00 6.944230000000000125e+00 1.921369999999999933e+01 4.341000000000000192e+00 1.849990000000000023e+00 1.626119999999999877e+01 8.054380000000000095e+00 6.141549999999999621e+00 1.608749999999999858e+01 7.836280000000000356e+00 2.133550000000000058e+00 1.657600000000000051e+01
