-6.529494617000000289e+01
-6.672302460000000224e+01
-6.689670701999999380e+01
-6.662518633999999906e+01
-6.455834946999999602e+01
-6.727368020999999487e+01
-6.534389631000000520e+01
-6.591164788000000385e+01
