7.814894970000000107e+00 0.000000000000000000e+00 0.000000000000000000e+00 -3.884337246999999937e+00 6.802563738999999998e+00 0.000000000000000000e+00 5.040000000000000026e-06 -3.819000000000000197e-06 2.130031098299999925e+01
7.568382010999999743e+00 0.000000000000000000e+00 0.000000000000000000e+00 -3.791813954000000209e+00 6.414098881000000141e+00 0.000000000000000000e+00 4.159517240000000227e-01 4.029370310000000011e-01 2.116391305799999856e+01
7.666119212999999988e+00 0.000000000000000000e+00 0.000000000000000000e+00 -3.941864355999999958e+00 6.794009287999999813e+00 0.000000000000000000e+00 -2.063682179999999922e-01 5.696221409999999707e-01 2.130975737600000031e+01
7.685847382000000394e+00 0.000000000000000000e+00 0.000000000000000000e+00 -3.952008441999999899e+00 6.811493149000000358e+00 0.000000000000000000e+00 -2.068992910000000129e-01 5.710880189999999468e-01 2.136459639899999985e+01
7.694972671999999569e+00 0.000000000000000000e+00 0.000000000000000000e+00 -3.956700601000000095e+00 6.819580331000000051e+00 0.000000000000000000e+00 -2.071449390000000002e-01 5.717660639999999628e-01 2.138996226100000086e+01
7.410350353000000112e+00 0.000000000000000000e+00 0.000000000000000000e+00 -3.810349814999999918e+00 6.567337100999999677e+00 0.000000000000000000e+00 -1.994830439999999983e-01 5.506175309999999934e-01 2.059878847499999921e+01
7.473068258999999713e+00 0.000000000000000000e+00 0.000000000000000000e+00 -3.774897361999999923e+00 6.496186527999999960e+00 0.000000000000000000e+00 5.782098799999999539e-01 3.284202250000000101e-01 2.074673563800000053e+01
7.385769116999999717e+00 0.000000000000000000e+00 0.000000000000000000e+00 -3.797710316999999947e+00 6.545552265000000425e+00 0.000000000000000000e+00 -1.988213289999999911e-01 5.487910499999999470e-01 2.053045922300000115e+01
7.600927676999999605e+00 0.000000000000000000e+00 0.000000000000000000e+00 -3.839483441000000052e+00 6.607332124000000029e+00 0.000000000000000000e+00 5.881026809999999605e-01 3.340392850000000191e-01 2.110169901400000114e+01
7.892062310000000025e+00 0.000000000000000000e+00 0.000000000000000000e+00 -3.986545307000000093e+00 6.860409549999999967e+00 0.000000000000000000e+00 6.106284920000000227e-01 3.468338289999999824e-01 2.190994711900000169e+01
7.446486585999999797e+00 0.000000000000000000e+00 0.000000000000000000e+00 -3.828930811000000212e+00 6.599362418000000119e+00 0.000000000000000000e+00 -2.004558140000000099e-01 5.533025919999999820e-01 2.069923751900000042e+01
7.269786600999999848e+00 0.000000000000000000e+00 0.000000000000000000e+00 -3.738072926000000074e+00 6.442764105000000185e+00 0.000000000000000000e+00 -1.956991359999999958e-01 5.401731029999999878e-01 2.020805890700000162e+01
7.421465364000000342e+00 0.000000000000000000e+00 0.000000000000000000e+00 -3.816065075000000029e+00 6.577187649999999941e+00 0.000000000000000000e+00 -1.997822549999999919e-01 5.514434190000000457e-01 2.062968522599999943e+01
8.022748197000000303e+00 0.000000000000000000e+00 0.000000000000000000e+00 -3.987649196000000007e+00 6.983491931999999736e+00 0.000000000000000000e+00 5.173999999999999929e-06 -3.919999999999999738e-06 2.186683662100000092e+01
7.335658847000000371e+00 0.000000000000000000e+00 0.000000000000000000e+00 -3.771943970000000146e+00 6.501142619000000344e+00 0.000000000000000000e+00 -1.974723850000000003e-01 5.450676639999999518e-01 2.039116610099999960e+01
7.269410802000000338e+00 0.000000000000000000e+00 0.000000000000000000e+00 -3.737879693000000003e+00 6.442431057000000294e+00 0.000000000000000000e+00 -1.956890199999999913e-01 5.401451800000000025e-01 2.020701428499999963e+01
7.835958583000000033e+00 0.000000000000000000e+00 0.000000000000000000e+00 -3.894806764000000143e+00 6.820898800000000151e+00 0.000000000000000000e+00 5.052999999999999732e-06 -3.829000000000000101e-06 2.135772205600000007e+01
7.519594938000000006e+00 0.000000000000000000e+00 0.000000000000000000e+00 -3.866522608999999999e+00 6.664153847999999769e+00 0.000000000000000000e+00 -2.024238560000000131e-01 5.587348229999999916e-01 2.090245915099999863e+01
7.910018341999999869e+00 0.000000000000000000e+00 0.000000000000000000e+00 -3.931617634000000194e+00 6.885364955000000009e+00 0.000000000000000000e+00 5.100999999999999950e-06 -3.865000000000000264e-06 2.155957964999999987e+01
7.972066618000000382e+00 0.000000000000000000e+00 0.000000000000000000e+00 -3.962458282000000054e+00 6.939375577999999933e+00 0.000000000000000000e+00 5.141000000000000414e-06 -3.895999999999999629e-06 2.172869869399999843e+01
7.312286091999999904e+00 0.000000000000000000e+00 0.000000000000000000e+00 -3.759925863999999951e+00 6.480428784999999969e+00 0.000000000000000000e+00 -1.968432019999999949e-01 5.433309790000000472e-01 2.032619610300000090e+01
8.049027322000000595e+00 0.000000000000000000e+00 0.000000000000000000e+00 -4.000711046000000159e+00 7.006366894000000123e+00 0.000000000000000000e+00 5.190999999999999936e-06 -3.933000000000000291e-06 2.193846311800000137e+01
7.292900483000000378e+00 0.000000000000000000e+00 0.000000000000000000e+00 -3.749957921000000027e+00 6.463248514000000000e+00 0.000000000000000000e+00 -1.963213510000000050e-01 5.418905539999999688e-01 2.027230930500000028e+01
7.609503585999999764e+00 0.000000000000000000e+00 0.000000000000000000e+00 -3.912753001000000008e+00 6.743834343999999703e+00 0.000000000000000000e+00 -2.048441530000000010e-01 5.654153819999999664e-01 2.115238110099999957e+01
7.698109213000000395e+00 0.000000000000000000e+00 0.000000000000000000e+00 -3.958313388000000099e+00 6.822360053999999785e+00 0.000000000000000000e+00 -2.072293729999999945e-01 5.719991210000000548e-01 2.139868100400000017e+01
8.055082020000000398e+00 0.000000000000000000e+00 0.000000000000000000e+00 -4.003720490000000076e+00 7.011637275000000002e+00 0.000000000000000000e+00 5.195000000000000236e-06 -3.936000000000000093e-06 2.195496582899999893e+01
7.291393988000000270e+00 0.000000000000000000e+00 0.000000000000000000e+00 -3.749183292000000112e+00 6.461913401000000334e+00 0.000000000000000000e+00 -1.962807960000000074e-01 5.417786150000000189e-01 2.026812165300000146e+01
