7.322533696459577968e+00 1.073364804436261654e-18 5.923809619917731120e-23 -3.639612622800322939e+00 6.373982298489818454e+00 1.525201406143977736e-22 4.722182844541705836e-06 -3.578284288181773563e-06 1.995832899999932053e+01
7.322533558459780600e+00 5.378643910845906537e-19 5.923809619917731120e-23 -3.639612561807038738e+00 6.373982174502975440e+00 -5.923809619917731120e-23 4.727394829937961539e-06 -3.454293040147074420e-06 1.995832896399932821e+01
7.322533145458673509e+00 2.102238211883540370e-18 5.923809619917731120e-23 -3.639612326567595257e+00 6.373981878953855151e+00 1.525201406143977736e-22 4.753977752636510857e-06 -3.113338038099512429e-06 1.995832863099935395e+01
7.322532405458047400e+00 1.867362544753134889e-19 5.923809619917731120e-23 -3.639611858077849149e+00 6.373981445284489844e+00 1.525201406143977736e-22 4.816878616974402065e-06 -2.586444878009606920e-06 1.995832795499938683e+01
7.322531264456297428e+00 -7.830847124062102615e-19 5.923809619917731120e-23 -3.639611083050407370e+00 6.373980900934181903e+00 -5.923809619917731120e-23 4.935044426917473246e-06 -1.904645993381582647e-06 1.995832686699942471e+01
7.322529658453515999e+00 -1.561561135011639190e-18 5.923809619917731120e-23 -3.639609936333739526e+00 6.373980278846153702e+00 -5.923809619917731120e-23 5.136396531046398644e-06 -1.113989176793272362e-06 1.995832530099945856e+01
7.322527576451427933e+00 1.558983107594220254e-18 -1.525201406143977736e-22 -3.639608393969263389e+00 6.373979621487420033e+00 1.525201406143977736e-22 5.440840893582160309e-06 -2.695085292157350501e-07 1.995832323999948343e+01
7.322525016446620683e+00 -3.240437631031423069e-20 2.709963330127523960e-22 -3.639606445645374944e+00 6.373978956845042454e+00 -5.923809619917731120e-23 5.866310827591440386e-06 5.897652438944892076e-07 1.995832067999949189e+01
7.322521908442617189e+00 -1.654979112976190978e-18 5.923809619917731120e-23 -3.639604033510250858e+00 6.373978289876849779e+00 -5.923809619917731120e-23 6.443777245267600974e-06 1.446779178190721245e-06 1.995831753399948028e+01
7.322518155436131160e+00 1.350124654205859744e-18 5.923809619917731120e-23 -3.639601074145229820e+00 6.373977628525867800e+00 1.525201406143977736e-22 7.217204209057553806e-06 2.280458093821085725e-06 1.995831369499944330e+01
7.395831364000000185e+00 0.000000000000000000e+00 0.000000000000000000e+00 -3.806153258000000150e+00 6.190370469000000320e+00 0.000000000000000000e+00 2.701581020000000111e-01 -6.863720000000000238e-03 1.942909593599999951e+01
7.395830971999999726e+00 0.000000000000000000e+00 0.000000000000000000e+00 -3.806153758999999859e+00 6.190368809999999833e+00 0.000000000000000000e+00 2.701591210000000021e-01 -6.863779000000000408e-03 1.942909207599999988e+01
7.395830106000000015e+00 0.000000000000000000e+00 0.000000000000000000e+00 -3.806154579999999843e+00 6.190365494999999996e+00 0.000000000000000000e+00 2.701614199999999855e-01 -6.863900000000000036e-03 1.942908419600000158e+01
7.395828752999999978e+00 0.000000000000000000e+00 0.000000000000000000e+00 -3.806155624000000071e+00 6.190360532999999776e+00 0.000000000000000000e+00 2.701650230000000041e-01 -6.864074000000000390e-03 1.942907222899999908e+01
7.395826861999999835e+00 0.000000000000000000e+00 0.000000000000000000e+00 -3.806156806000000170e+00 6.190353833999999722e+00 0.000000000000000000e+00 2.701699980000000223e-01 -6.864292999999999610e-03 1.942905585100000110e+01
7.395824406000000018e+00 0.000000000000000000e+00 0.000000000000000000e+00 -3.806158004999999900e+00 6.190345441999999920e+00 0.000000000000000000e+00 2.701763010000000076e-01 -6.864539999999999705e-03 1.942903505099999961e+01
7.395821434000000139e+00 0.000000000000000000e+00 0.000000000000000000e+00 -3.806159086000000080e+00 6.190335636000000363e+00 0.000000000000000000e+00 2.701837260000000129e-01 -6.864796000000000266e-03 1.942901041300000031e+01
7.395817971999999685e+00 0.000000000000000000e+00 0.000000000000000000e+00 -3.806159939000000048e+00 6.190324635999999714e+00 0.000000000000000000e+00 2.701921090000000136e-01 -6.865043999999999834e-03 1.942898240099999896e+01
7.395813960999999992e+00 0.000000000000000000e+00 0.000000000000000000e+00 -3.806160488999999814e+00 6.190312383000000196e+00 0.000000000000000000e+00 2.702014870000000180e-01 -6.865277000000000358e-03 1.942895076699999990e+01
7.395809315000000161e+00 0.000000000000000000e+00 0.000000000000000000e+00 -3.806160649000000173e+00 6.190298750000000183e+00 0.000000000000000000e+00 2.702119279999999901e-01 -6.865485000000000164e-03 1.942891507899999937e+01
7.480936358000000119e+00 0.000000000000000000e+00 0.000000000000000000e+00 -3.641874701999999964e+00 6.285794186000000394e+00 0.000000000000000000e+00 3.535785089999999853e-01 1.636329519999999982e-01 1.993518493299999861e+01
7.480936953999999695e+00 0.000000000000000000e+00 0.000000000000000000e+00 -3.641874628000000058e+00 6.285793725999999637e+00 0.000000000000000000e+00 3.535794360000000247e-01 1.636333709999999997e-01 1.993518495900000076e+01
7.480938024000000297e+00 0.000000000000000000e+00 0.000000000000000000e+00 -3.641874372000000193e+00 6.285792739999999768e+00 0.000000000000000000e+00 3.535812560000000104e-01 1.636341249999999914e-01 1.993518471300000172e+01
7.480939558000000211e+00 0.000000000000000000e+00 0.000000000000000000e+00 -3.641873905999999828e+00 6.285791215999999793e+00 0.000000000000000000e+00 3.535839519999999792e-01 1.636351910000000132e-01 1.993518413099999975e+01
7.480941589000000391e+00 0.000000000000000000e+00 0.000000000000000000e+00 -3.641873200000000033e+00 6.285789111999999790e+00 0.000000000000000000e+00 3.535875669999999915e-01 1.636365740000000069e-01 1.993518315500000071e+01
7.480944102999999679e+00 0.000000000000000000e+00 0.000000000000000000e+00 -3.641872227999999989e+00 6.285786417999999820e+00 0.000000000000000000e+00 3.535920779999999763e-01 1.636382540000000108e-01 1.993518172299999947e+01
7.480947011999999674e+00 0.000000000000000000e+00 0.000000000000000000e+00 -3.641870996999999832e+00 6.285783204000000346e+00 0.000000000000000000e+00 3.535973339999999854e-01 1.636401670000000030e-01 1.993517981600000155e+01
7.480950230000000367e+00 0.000000000000000000e+00 0.000000000000000000e+00 -3.641869505999999923e+00 6.285779519000000093e+00 0.000000000000000000e+00 3.536032130000000273e-01 1.636422620000000105e-01 1.993517739300000002e+01
7.480953762000000395e+00 0.000000000000000000e+00 0.000000000000000000e+00 -3.641867718999999948e+00 6.285775319999999944e+00 0.000000000000000000e+00 3.536097469999999743e-01 1.636445490000000003e-01 1.993517436300000156e+01
7.480957640999999825e+00 0.000000000000000000e+00 0.000000000000000000e+00 -3.641865596000000149e+00 6.285770547000000263e+00 0.000000000000000000e+00 3.536170040000000125e-01 1.636470489999999889e-01 1.993517063599999872e+01
7.144206459000000287e+00 0.000000000000000000e+00 0.000000000000000000e+00 -3.685736043999999989e+00 6.468239720999999776e+00 0.000000000000000000e+00 -1.822799119999999884e-01 -1.512533420000000128e-01 1.982636779299999930e+01
7.144205195999999702e+00 0.000000000000000000e+00 0.000000000000000000e+00 -3.685736003999999788e+00 6.468239838999999769e+00 0.000000000000000000e+00 -1.822803759999999940e-01 -1.512539579999999939e-01 1.982636673300000041e+01
7.144202671000000393e+00 0.000000000000000000e+00 0.000000000000000000e+00 -3.685735857000000060e+00 6.468239978999999806e+00 0.000000000000000000e+00 -1.822813580000000044e-01 -1.512553399999999881e-01 1.982636437900000104e+01
7.144198911000000152e+00 0.000000000000000000e+00 0.000000000000000000e+00 -3.685735607999999885e+00 6.468240140999999888e+00 0.000000000000000000e+00 -1.822829370000000060e-01 -1.512574690000000055e-01 1.982636067600000018e+01
7.144193868000000336e+00 0.000000000000000000e+00 0.000000000000000000e+00 -3.685735266000000010e+00 6.468240336000000035e+00 0.000000000000000000e+00 -1.822852389999999878e-01 -1.512603529999999863e-01 1.982635550099999833e+01
7.144187558999999688e+00 0.000000000000000000e+00 0.000000000000000000e+00 -3.685734843000000094e+00 6.468240562000000082e+00 0.000000000000000000e+00 -1.822883620000000093e-01 -1.512639560000000050e-01 1.982634877499999959e+01
7.144180171000000357e+00 0.000000000000000000e+00 0.000000000000000000e+00 -3.685734357999999933e+00 6.468240806999999926e+00 0.000000000000000000e+00 -1.822923120000000119e-01 -1.512681569999999864e-01 1.982634059900000167e+01
7.144171895999999577e+00 0.000000000000000000e+00 0.000000000000000000e+00 -3.685733819999999827e+00 6.468241049000000409e+00 0.000000000000000000e+00 -1.822970580000000118e-01 -1.512728419999999907e-01 1.982633108799999988e+01
7.144162731999999849e+00 0.000000000000000000e+00 0.000000000000000000e+00 -3.685733229000000222e+00 6.468241276999999734e+00 0.000000000000000000e+00 -1.823026749999999974e-01 -1.512780079999999916e-01 1.982632015000000081e+01
7.144152558000000042e+00 0.000000000000000000e+00 0.000000000000000000e+00 -3.685732581999999979e+00 6.468241480999999737e+00 0.000000000000000000e+00 -1.823093279999999927e-01 -1.512837009999999927e-01 1.982630753799999823e+01
7.329550214000000175e+00 0.000000000000000000e+00 0.000000000000000000e+00 -3.621948544999999964e+00 6.428563614999999842e+00 0.000000000000000000e+00 -1.025549850000000013e-01 -3.235557259999999880e-01 1.965843760799999984e+01
7.329550027999999884e+00 0.000000000000000000e+00 0.000000000000000000e+00 -3.621948252000000146e+00 6.428563685000000305e+00 0.000000000000000000e+00 -1.025552779999999997e-01 -3.235566220000000159e-01 1.965843639499999895e+01
7.329549519000000402e+00 0.000000000000000000e+00 0.000000000000000000e+00 -3.621947503999999984e+00 6.428563740000000415e+00 0.000000000000000000e+00 -1.025558139999999951e-01 -3.235583340000000030e-01 1.965843379200000030e+01
7.329548638000000338e+00 0.000000000000000000e+00 0.000000000000000000e+00 -3.621946276000000076e+00 6.428563779000000089e+00 0.000000000000000000e+00 -1.025565789999999949e-01 -3.235608229999999974e-01 1.965842977100000155e+01
7.329547317000000284e+00 0.000000000000000000e+00 0.000000000000000000e+00 -3.621944522999999805e+00 6.428563809999999989e+00 0.000000000000000000e+00 -1.025575759999999975e-01 -3.235640980000000222e-01 1.965842422600000106e+01
7.329545497999999881e+00 0.000000000000000000e+00 0.000000000000000000e+00 -3.621942226999999903e+00 6.428563827999999702e+00 0.000000000000000000e+00 -1.025587840000000001e-01 -3.235681069999999937e-01 1.965841711699999905e+01
7.329543178999999853e+00 0.000000000000000000e+00 0.000000000000000000e+00 -3.621939433000000097e+00 6.428563825000000342e+00 0.000000000000000000e+00 -1.025601490000000032e-01 -3.235726890000000244e-01 1.965840861099999870e+01
7.329540363999999641e+00 0.000000000000000000e+00 0.000000000000000000e+00 -3.621936177999999895e+00 6.428563789000000028e+00 0.000000000000000000e+00 -1.025616240000000040e-01 -3.235777049999999933e-01 1.965839885400000142e+01
7.329536992000000417e+00 0.000000000000000000e+00 0.000000000000000000e+00 -3.621932424999999789e+00 6.428563708999999626e+00 0.000000000000000000e+00 -1.025631969999999948e-01 -3.235831479999999871e-01 1.965838774999999927e+01
7.329532962000000040e+00 0.000000000000000000e+00 0.000000000000000000e+00 -3.621928109000000173e+00 6.428563574000000003e+00 0.000000000000000000e+00 -1.025648680000000035e-01 -3.235890510000000164e-01 1.965837510000000066e+01
