-1.129891082095024979e+00 6.330610503169705083e+00 5.564065383812542842e-02 -1.180296697132133810e+00 2.114449977584901053e+00 6.694480328033699301e+00 4.786754583344166036e+00 4.414993974801934229e+00 9.415899694675822218e+00 -1.103830588795791101e+00 1.958978051998063519e+00 1.939506030532333014e+01 4.863219948381778401e+00 4.259522478697079784e+00 1.667364967196551717e+01 1.274473991625627134e+00 2.036964323198314109e+00 3.364929986684281005e+00 2.408448367318120287e+00 4.337018658524286252e+00 1.334410001331580453e+01 4.812812554266479914e+00 4.338300079616845550e-02 1.003480934616283093e+01 2.231109425787833889e+00 7.864560086634565794e-02 1.274414970151500626e+01 1.093867021378508442e+00 2.061282065316861534e+00 1.601027001326784216e+01 1.451822769278625413e+00 6.295337458444544509e+00 2.764990298483726683e+00 2.589056048683851419e+00 4.312690495656100964e+00 6.031109986731387984e+00 4.904253981691216069e+00 2.603968124425677377e-01 1.269904935079927988e+01 2.175751749204386964e+00 4.251786612320077374e+00 8.985640038368430282e+00 5.823864087766358111e+00 1.844866991595507821e+00 1.647304935024012806e+01 4.803123202425831018e+00 4.098005299949280200e+00 1.238811966742759019e+01 1.381177948243508480e+00 1.886861511789894585e+00 6.021449960268024704e+00 -2.140940874214047884e+00 4.529115496329692903e+00 6.493880649759882218e+00 4.743324529414367774e+00 4.215287134482753828e+00 1.934510968484852000e+01 4.797056260627874380e+00 1.336704058287700725e-01 5.690479355438914588e+00 -1.221331816022100059e+00 6.113576271093651648e+00 2.719880649200036249e+00 8.261603446038020548e-01 2.262600158589081811e+00 1.317521006571268316e+01 1.464779819607512801e+00 5.976303499820196485e+00 1.987129027154017891e+01 2.218154322091162811e+00 3.976784347161834710e-01 9.892129728458375126e+00 2.301755119165811880e+00 4.487111033615123645e+00 1.600061003972984253e+01 -1.114123283616224480e+00 6.240302191808507537e+00 1.566964064455896022e+01 2.856761968212469416e+00 4.111382849786220817e+00 3.196049934287407801e+00 1.507182144905124144e+00 2.122195465274645976e+00 1.896479996163014903e+01 -1.120201104588426810e+00 2.275977832641962628e+00 2.408950332572521003e+00 -1.060400531417733383e+00 2.158694900186319821e+00 9.365940315151414453e+00
-1.135841434018499019e+00 6.336260682626291718e+00 4.852065509658876757e-02 -1.175013679010058043e+00 2.110360941969149806e+00 6.690810326989574008e+00 4.783842913539172237e+00 4.408168941458932011e+00 9.415579694534898181e+00 -1.102248537189041366e+00 1.948475332032793439e+00 1.940200030427853406e+01 4.864421469674623744e+00 4.254560417151761698e+00 1.667932967140988154e+01 1.270124442479349858e+00 2.043081765997391219e+00 3.371779987760989972e+00 2.411982361627537319e+00 4.339352621572279745e+00 1.334186001301735480e+01 4.806133710833578654e+00 3.821440845894773924e-02 1.003999934666706828e+01 2.236770681169834685e+00 7.937592607944470025e-02 1.273540970079950263e+01 1.090850871103414610e+00 2.063537224232774747e+00 1.600622001385769266e+01 1.446971185436677132e+00 6.300265758501154778e+00 2.760400299535168855e+00 2.597993747242660412e+00 4.305485207782025370e+00 6.038149984942259074e+00 4.901258122062960965e+00 2.628219367086252478e-01 1.269618935139975591e+01 2.175476571197730635e+00 4.254607085922910592e+00 8.995730038628567016e+00 5.836083623445850854e+00 1.856286122096526547e+00 1.647073934947241369e+01 4.800224453342320174e+00 4.104590264254598608e+00 1.238595966834305528e+01 1.365058415719974994e+00 1.887149064695792466e+00 6.017529962492074169e+00 -2.137748572370298916e+00 4.536310050609225542e+00 6.492290649891644172e+00 4.740632550440594173e+00 4.214131734074319624e+00 1.934279968512497661e+01 4.801633604175979286e+00 1.321125798512421123e-01 5.687279354690874200e+00 -1.224076717787033974e+00 6.116560966929200482e+00 2.723340649810420455e+00 8.257855784144976230e-01 2.248110777861050735e+00 1.317652006462053826e+01 1.461804816076622826e+00 5.967528572471042736e+00 1.986484027125405660e+01 2.217832150903876975e+00 4.022589920177407907e-01 9.891969728863809763e+00 2.311505053643165830e+00 4.487064368536406889e+00 1.599953003839466170e+01 -1.110398964053908033e+00 6.236975821500231554e+00 1.566599064378788420e+01 2.859252613884762262e+00 4.117608601338329066e+00 3.200219934438532476e+00 1.500628905380948064e+00 2.132006680522918529e+00 1.896636996329927172e+01 -1.122528261236723779e+00 2.271791803307584789e+00 2.420840332560024510e+00 -1.053814439530779579e+00 2.162253648508345893e+00 9.361740314532804419e+00
-1.141911615319978202e+00 6.342011066974928113e+00 4.126065637934801106e-02 -1.169640780826055604e+00 2.106201752542580685e+00 6.687090325927651513e+00 4.780871038392191075e+00 4.401224011192850227e+00 9.415249694392723967e+00 -1.100636827599447143e+00 1.937772560993055393e+00 1.940906030321391640e+01 4.865642870997004543e+00 4.249528321867931169e+00 1.668510967084598917e+01 1.265695115518834957e+00 2.049329345429323102e+00 3.378739988858862286e+00 2.415556389745310728e+00 4.341706516398200932e+00 1.333959001271500711e+01 4.799344747921136189e+00 3.297600458309745547e-02 1.004525934718081537e+01 2.242531919285778663e+00 8.009608055722372555e-02 1.272650970006952775e+01 1.087794772005243216e+00 2.065822451559044204e+00 1.600210001445537245e+01 1.442019755107246892e+00 6.305284229460939471e+00 2.755740300607371740e+00 2.607091240167385582e+00 4.298159646780374210e+00 6.045339983121817085e+00 4.898282313651555420e+00 2.652770271077325437e-01 1.269323935199983566e+01 2.175241461225932316e+00 4.257467491236805124e+00 9.006050038886385778e+00 5.848543415031167925e+00 1.867854842579826036e+00 1.646845934868367323e+01 4.797255806605018158e+00 4.111235348474622242e+00 1.238369966927279542e+01 1.348688968885935369e+00 1.887487044939197389e+00 6.013599964754231308e+00 -2.134516031613627352e+00 4.543644536156610236e+00 6.490740650028977932e+00 4.737900519938937016e+00 4.212946402424869952e+00 1.934045968540452520e+01 4.806280862141893984e+00 1.305046346519064815e-01 5.684019353929306462e+00 -1.226931483095781150e+00 6.119625850576945858e+00 2.726790650442159958e+00 8.253704702749475874e-01 2.233421465853093757e+00 1.317785006351812704e+01 1.458739538743156983e+00 5.958593799306738603e+00 1.985822027096765297e+01 2.217520099310434922e+00 4.069095322906045031e-01 9.891739729273373527e+00 2.321434884979619806e+00 4.486957396047870361e+00 1.599846003703015640e+01 -1.106594764715040480e+00 6.233579314479009703e+00 1.566228064300038980e+01 2.861833430062915795e+00 4.123934199112992971e+00 3.204469934585219004e+00 1.493915956521421284e+00 2.141988169102577722e+00 1.896803996500363709e+01 -1.124875417998326466e+00 2.267605808064203199e+00 2.432890332550273982e+00 -1.047138245389388489e+00 2.165872242841586637e+00 9.357450313906625183e+00
-1.147991761942000810e+00 6.347781468476298095e+00 3.397065766507529477e-02 -1.164297848253885270e+00 2.102062614454197398e+00 6.683360324871416402e+00 4.777919163549294801e+00 4.394279046378493092e+00 9.414899694247800710e+00 -1.099045169108537001e+00 1.927039824265194934e+00 1.941613030214968205e+01 4.866864375197177850e+00 4.244556226125806297e+00 1.669087967028680097e+01 1.261275839977466839e+00 2.055606907628349855e+00 3.385699989957726252e+00 2.419100401147300516e+00 4.344050462330867113e+00 1.333733001241597549e+01 4.792565853363734973e+00 2.777758319156077571e-02 1.005049934769631115e+01 2.248303157393304996e+00 8.081621777136964446e-02 1.271760969933817620e+01 1.084808655867414595e+00 2.068097559171291344e+00 1.599796001504269682e+01 1.437048291104782827e+00 6.310282734523942061e+00 2.751090301680747974e+00 2.616198733409742516e+00 4.290834068484930874e+00 6.052559981300004388e+00 4.895406488019215629e+00 2.677219462246442361e-01 1.269026935258543176e+01 2.175046317345389557e+00 4.260307828038546241e+00 9.016440039137162188e+00 5.861023121275868775e+00 1.879373528500121848e+00 1.646623934788823007e+01 4.794257057662536070e+00 4.117820483698135803e+00 1.238137967020190366e+01 1.332399607550924348e+00 1.887874888261453998e+00 6.009739967009383399e+00 -2.131283490499209510e+00 4.550979021860597662e+00 6.489270650166338861e+00 4.735178438468399698e+00 4.211731053364296429e+00 1.933812968568032886e+01 4.810928085931559295e+00 1.288766891157159256e-01 5.680749353166135940e+00 -1.229856179476311873e+00 6.122730853913316729e+00 2.730160651086642964e+00 8.249154820115555120e-01 2.218802222049617967e+00 1.317918006242669549e+01 1.455634244821089496e+00 5.949649094420923490e+00 1.985153027068594511e+01 2.217188013581495643e+00 4.115401066145908393e-01 9.891429729684086070e+00 2.331354614121329938e+00 4.486790440560640469e+00 1.599741003566230013e+01 -1.102780564914867645e+00 6.230182790449774188e+00 1.565857064221155248e+01 2.864454212313888526e+00 4.130239728327864235e+00 3.208729934724860122e+00 1.487163059169425150e+00 2.151999725889341075e+00 1.896976996671583393e+01 -1.127222437852718251e+00 2.263499812792960419e+00 2.444900332546831478e+00 -1.040482119424565477e+00 2.169450871498860067e+00 9.353150313280044870e+00
-1.154012028559034508e+00 6.353481767469009611e+00 2.677065893712562289e-02 -1.159124761682205129e+00 2.098013766750177478e+00 6.679700323845517040e+00 4.775037493525924326e+00 4.387453961946263803e+00 9.414559694102729637e+00 6.225037449034394044e+00 1.916461160612056958e+00 1.942311930110312801e+01 4.868096118480932155e+00 4.239724113303613429e+00 1.669654966973724086e+01 1.256966461616256581e+00 2.061824281961903704e+00 3.392539991036831903e+00 2.422544258683731133e+00 4.346304579419279612e+00 1.333512001212353049e+01 4.785897180828406761e+00 2.270897380955362588e-02 1.005560934820696239e+01 2.253994327260944619e+00 8.149649187040960974e-02 1.270882969861459344e+01 1.081962453978289496e+00 2.070322427606619886e+00 1.599385001560694697e+01 1.432126638752378778e+00 6.315171154340966986e+00 2.746520302738646890e+00 2.625166448864313384e+00 4.283638729411443968e+00 6.059709979507553967e+00 4.892670559619098469e+00 2.701066263437538750e-01 1.268731935314713155e+01 2.174891002285431973e+00 4.263048096717892754e+00 9.026730039374603720e+00 5.873312349143041011e+00 1.890612539829362060e+00 1.646411934709670177e+01 4.791298034999055488e+00 4.124245550995554233e+00 1.237900967111293404e+01 1.316470313995155239e+00 1.888302116245504925e+00 6.005999969218469126e+00 -2.128091188800818934e+00 4.558173576038508479e+00 6.487910650298186255e+00 4.732506322571389035e+00 4.210495619067054385e+00 1.933588968594770918e+01 4.815505258548793854e+00 1.272188634722562772e-01 5.677539352410138740e+00 -1.232810841912914013e+00 6.125855908457668697e+00 2.733370651736831913e+00 8.244410577296639175e-01 2.204513011985964610e+00 1.318049006136396173e+01 1.452519155772703074e+00 5.940824406511659994e+00 1.984488027041505376e+01 2.216825739852458010e+00 4.160607324773465399e-01 9.891049730090230696e+00 2.341104240768150824e+00 4.486563775830057388e+00 1.599639003431295770e+01 -1.099046296886140972e+00 6.226826403048592695e+00 1.565493064143683100e+01 2.867044789315284614e+00 4.136425309122278016e+00 3.212939934859154523e+00 1.480479939429571790e+00 2.161881163278177365e+00 1.897155996840822922e+01 -1.129529167322738781e+00 2.259563748873390399e+00 2.456680332551312684e+00 -1.033956164279124845e+00 2.172929722454323365e+00 9.348910312663385014e+00
-1.160012329562990718e+00 6.359162032270302412e+00 1.961066020490421016e-02 -1.154091538218203317e+00 2.094045158187278766e+00 6.676090322845067426e+00 4.772205942952673752e+00 4.380698792084004367e+00 9.414209693956308911e+00 6.226549449342708265e+00 1.905928560515547376e+00 1.943009930006537900e+01 4.869348100904399068e+00 4.235031966232376988e+00 1.670216966919593560e+01 1.252717100193642796e+00 2.068051553765950956e+00 3.399319992108519539e+00 2.425888030786337968e+00 4.348508867570782144e+00 1.333294001184081878e+01 4.779288696212419474e+00 1.775026185151895586e-02 1.006064934871802485e+01 2.259655445898334225e+00 8.214681735079919223e-02 1.270008969789273223e+01 1.079266183440936944e+00 2.072507039744642565e+00 1.598973001614754352e+01 1.427194832413628101e+00 6.319969591417088139e+00 2.742010303790845871e+00 2.634084249731722949e+00 4.276493475802634059e+00 6.066839977725865474e+00 4.890084596811515638e+00 2.724710502399911305e-01 1.268439935368671279e+01 2.174755533242030303e+00 4.265698331406301946e+00 9.037000039602228085e+00 5.885501235266389131e+00 1.901651722533129085e+00 1.646208934630305620e+01 4.788368807054396825e+00 4.130550567332125667e+00 1.237654967201039824e+01 1.300841088333075435e+00 1.888768831425322814e+00 6.002369971389687642e+00 -2.124909041034139356e+00 4.565278147372911377e+00 6.486650650424356179e+00 4.729874138139323669e+00 4.209220116584584837e+00 1.933372968620644627e+01 4.820062362826117663e+00 1.255210722048615557e-01 5.674359351653687433e+00 -1.235825418991905789e+00 6.129031065460804228e+00 2.736430652399191921e+00 8.239470607270252822e-01 2.190473835765040178e+00 1.318180006032363139e+01 1.449344152104145023e+00 5.932049821126887501e+00 1.983820027015631382e+01 2.216433363585793348e+00 4.205214097758284142e-01 9.890559730495738222e+00 2.350763730679940711e+00 4.486257265115067838e+00 1.599536003296962328e+01 -1.095361977671703180e+00 6.223500101029579845e+00 1.565136064067133859e+01 2.869615229488831520e+00 4.142530924299668627e+00 3.217139934989881045e+00 1.473816751239455991e+00 2.171722566576165914e+00 1.897341997009473857e+01 -1.131845623384027943e+00 2.255787701793410260e+00 2.468300332569767441e+00 -1.027520362891073180e+00 2.176318727342146708e+00 9.344700312051962499e+00
-1.166132424593272265e+00 6.364962502145041334e+00 1.232066149856293584e-02 -1.149158314379660206e+00 2.090076720679192590e+00 6.672450321858306665e+00 4.769374239032592833e+00 4.373853621823848847e+00 9.413849693802779584e+00 6.228041125155770352e+00 1.895205994177671549e+00 1.943722929901536745e+01 4.870680169151929029e+00 4.230389681802661173e+00 1.670784966864760079e+01 1.248467995397332331e+00 2.074428825206335425e+00 3.406169993192005752e+00 2.429191769244488430e+00 4.350693223852342584e+00 1.333075001156199590e+01 4.772610211704638061e+00 1.279166900744460947e-02 1.006571934923861456e+01 2.265406547299226414e+00 8.278698877506480980e-02 1.269118969715776402e+01 1.076709947095355613e+00 2.074711412450401138e+00 1.598547001667057543e+01 1.422133044051456130e+00 6.324778250526740919e+00 2.737440304861613605e+00 2.643141914151831973e+00 4.269267982710763576e+00 6.074129975918737934e+00 4.887608668055891670e+00 2.748552855484215351e-01 1.268145935421278736e+01 2.174649979196773941e+00 4.268298514631390539e+00 9.047490039821813212e+00 5.897840155572867893e+00 1.912710648163347793e+00 1.646009934549043763e+01 4.785419596668860187e+00 4.136865617319648081e+00 1.237392967291135726e+01 1.285201965454301876e+00 1.889295563463663008e+00 5.998769973566991709e+00 -2.121636773231925677e+00 4.572452565001896119e+00 6.485480650543766323e+00 4.727221834563986924e+00 4.207874647859816797e+00 1.933161968646238904e+01 4.824719278948931489e+00 1.237131096410925835e-01 5.671139350874868867e+00 -1.238979755903303781e+00 6.132346461698192641e+00 2.739400653091738747e+00 8.234530126926995486e-01 2.176404659494783456e+00 1.318313005928094128e+01 1.446018875811281523e+00 5.923115492214948041e+00 1.983135026990549576e+01 2.215981004529827825e+00 4.249921893775539528e-01 9.889949730910215564e+00 2.360543084170009465e+00 4.485870549149103326e+00 1.599429003160358675e+01 -1.091667743245340327e+00 6.220123782114233002e+00 1.564777063990057826e+01 2.872215789737150970e+00 4.148706487772199303e+00 3.221419935122003864e+00 1.467033888240715678e+00 2.181754174532140933e+00 1.897540997181259570e+01 -1.134231908153086499e+00 2.252111774331633676e+00 2.480030332605677401e+00 -1.021044629696027828e+00 2.179667664036429198e+00 9.340440311431944309e+00
-1.172442246919817466e+00 6.370923296368251165e+00 4.850662830817315495e-03 -1.144315142030007726e+00 2.086078436864452712e+00 6.668770320881504787e+00 4.766542295110461680e+00 4.366868452539435452e+00 9.413479693638208801e+00 6.229512305042669063e+00 1.884193463436256710e+00 1.944458929794522817e+01 4.872102287874371385e+00 4.225777244276846645e+00 1.671361966808929367e+01 1.244189283450925609e+00 2.081036147781040402e+00 3.413129994297686043e+00 2.432455472870679536e+00 4.352857648926895529e+00 1.332854001128706223e+01 4.765801727393019327e+00 7.833299131343170879e-03 1.007084934977693180e+01 2.271297631358490055e+00 8.341692130385709725e-02 1.268205969640284714e+01 1.074303727264834585e+00 2.076925528942167087e+00 1.598104001717388734e+01 1.416891289104376561e+00 6.329607217507180472e+00 2.732790305958573196e+00 2.652409304125158851e+00 4.261882131321782730e+00 6.081629974070305700e+00 4.885232824566640097e+00 2.772893506520685003e-01 1.267847935472908460e+01 2.174554339023428540e+00 4.270848681166266481e+00 9.058260040036097749e+00 5.910409194886987905e+00 1.923839181514806151e+00 1.645814934465184010e+01 4.782430471109757164e+00 4.143230736391928737e+00 1.237111967382169020e+01 1.269522927795103007e+00 1.889872364003840843e+00 5.995199975753692456e+00 -2.118244352499416117e+00 4.579716777040228060e+00 6.484400650653889819e+00 4.724529376545031134e+00 4.206439248394371333e+00 1.932957968671668780e+01 4.829505972654692059e+00 1.217749258480744640e-01 5.667879350068009359e+00 -1.242283785934589213e+00 6.135842113866207370e+00 2.742280653818986558e+00 8.229387592309944655e-01 2.162215517715316615e+00 1.318449005823154430e+01 1.442523188558669123e+00 5.913941454477584792e+00 1.982426026965904242e+01 2.215448730965213997e+00 4.295131060148001390e-01 9.889199731339546773e+00 2.370512282819148275e+00 4.485393508943496421e+00 1.599317003020449057e+01 -1.087943646609796922e+00 6.216667411863604720e+00 1.564416063911945542e+01 2.874846520214944690e+00 4.154982000274301868e+00 3.225839935257882818e+00 1.460071486670364127e+00 2.192056089981953448e+00 1.897755997357629809e+01 -1.136728039268662949e+00 2.248526034557801978e+00 2.491940332663723723e+00 -1.014488914076023596e+00 2.183006463848727652e+00 9.336080310800220161e+00
2.460771403038368721e+00 2.972374457448270519e-03 1.995563966417961410e+01 -1.139701849428822911e+00 2.082150546219451392e+00 6.665100319941670293e+00 4.763750300410188210e+00 4.359853214319981518e+00 9.413099693465781570e+00 6.230933314334871298e+00 1.873081017497590484e+00 1.945205929687399404e+01 4.873614680485371942e+00 4.221324652062083516e+00 1.671938966753124234e+01 1.239970776790794815e+00 2.087763367467228015e+00 3.420079995404600837e+00 2.435619074646489413e+00 4.354962244701686025e+00 1.332634001102106858e+01 4.758983379832784522e+00 2.954945623240225541e-03 1.007594935032286187e+01 2.277218664095079781e+00 8.401680231590477610e-02 1.267283969564144819e+01 1.072147490226031730e+00 2.079129218009307500e+00 1.597649001764223620e+01 1.411539398385170951e+00 6.334356372441472871e+00 2.728120307064287875e+00 2.661726660398390010e+00 4.254476194153776980e+00 6.089219972213454568e+00 4.883046980839434781e+00 2.797230903718497808e-01 1.267552935521935886e+01 2.174478511366658928e+00 4.273288813389264362e+00 9.069150040238987742e+00 5.922957995190078151e+00 1.934827748495358879e+00 1.645625934380490918e+01 4.779471260549867928e+00 4.149545803662191723e+00 1.236812967472395819e+01 1.254133975427213610e+00 1.890498668620690603e+00 5.991709977904682738e+00 -2.114771982560505581e+00 4.586950852645220067e+00 6.483430650750758417e+00 4.721846782326628578e+00 4.204923831339338669e+00 1.932765968696329750e+01 4.834352495365444646e+00 1.197366390280868165e-01 5.664629349245029921e+00 -1.245697575748068164e+00 6.139477954017988459e+00 2.745000654572324450e+00 8.224147624506183973e-01 2.148176392702259019e+00 1.318587005719531469e+01 1.438877382618749756e+00 5.904697673053859397e+00 1.981705026942760028e+01 2.214836406275859204e+00 4.340041591630189877e-01 9.888309731777431111e+00 2.380491328188786060e+00 4.484826451477989195e+00 1.599200002879694082e+01 -1.084269600376205123e+00 6.213181127254333802e+00 1.564060063834284264e+01 2.877447251274644735e+00 4.161257563682152494e+00 3.230309935397850829e+00 1.453059273486483116e+00 2.202468090536695566e+00 1.897982997535548577e+01 -1.139303862318305827e+00 2.245120431407455541e+00 2.503830332746887599e+00 -1.007973369045573220e+00 2.186245332308468736e+00 9.331700310166114676e+00
2.454391666819914164e+00 8.983288549946226442e-03 1.994816966552500048e+01 -1.135458317231542669e+00 2.078363287641340040e+00 6.661550319063453074e+00 4.761078493018847446e+00 4.352947771413480105e+00 9.412729693285566412e+00 6.232274460254544124e+00 1.862048708945309938e+00 1.945952929581993018e+01 4.875197465589620194e+00 4.217101940469472510e+00 1.672505966698167512e+01 1.235892320928259513e+00 2.094520347978238384e+00 3.426889996494734802e+00 2.438602522329085254e+00 4.356977148565001734e+00 1.332421001077259426e+01 1.112664730248849709e+00 6.372246699271149950e+00 1.008092035087016214e+01 2.283089628532955384e+00 8.457676912315038875e-02 1.266367969488370804e+01 1.070311149900829983e+00 2.081272360342672822e+00 1.597187001806211804e+01 1.406167199265558443e+00 6.338925561990078172e+00 2.723530308158589097e+00 2.670944204310716774e+00 4.247180428077675707e+00 6.096789970378915235e+00 4.881091085478354685e+00 2.821264375997374341e-01 1.267267935567577730e+01 2.174412375497968064e+00 4.275548929054761693e+00 9.079970040426342592e+00 5.935256180308032370e+00 1.945456744030576335e+00 1.645447934296376502e+01 4.776601741668062395e+00 4.155680717959313597e+00 1.236500967559972430e+01 1.239365056128716835e+00 1.891143913617303607e+00 5.988379979972488165e+00 -2.111269903780264023e+00 4.594014876951050041e+00 6.482600650830197431e+00 4.719214102082432305e+00 4.203358329459494058e+00 1.932591968719910014e+01 4.839188830068947844e+00 1.175883700484117167e-01 5.661449348414706151e+00 -1.249171195332136053e+00 6.143213896442886401e+00 2.747500655341776454e+00 8.219115003493887572e-01 2.134567232979276419e+00 1.318722005619018312e+01 1.435141695732871536e+00 5.895524045536800095e+00 1.980983026921397894e+01 2.214143876520307863e+00 4.383753495093216657e-01 9.887269732216784845e+00 2.390300236509507847e+00 4.484179684997699589e+00 1.599077002740632558e+01 -1.080715469251324112e+00 6.209745047539834140e+00 1.563715063758661294e+01 2.879947776858114761e+00 4.167413298544085265e+00 3.234759935542034004e+00 1.446116974481665984e+00 2.212829971687229502e+00 1.898219997712116225e+01 -1.141929224105367568e+00 2.241984913203317387e+00 2.515490332858153710e+00 -1.001598080455693873e+00 2.189334440152661987e+00 9.327390309539367763e+00
-1.270259999999999945e+00 6.147129999999999761e+00 5.439999999999999697e-02 -1.142009999999999970e+00 2.051460000000000061e+00 6.513639999999999652e+00 4.869869999999999699e+00 4.280369999999999564e+00 9.171469999999999345e+00 -8.966300000000000381e-01 1.900870000000000060e+00 1.887940000000000040e+01 5.056420000000000137e+00 4.131980000000000430e+00 1.622852999999999923e+01 1.289700000000000069e+00 1.975629999999999997e+00 3.275999999999999801e+00 2.524379999999999846e+00 4.207609999999999850e+00 1.299245999999999945e+01 4.996620000000000061e+00 3.844999999999999807e-02 9.767480000000000828e+00 2.422959999999999781e+00 7.140000000000000513e-02 1.240494999999999948e+01 1.274869999999999948e+00 1.997039999999999926e+00 1.558508999999999922e+01 1.375119999999999898e+00 6.112490000000000201e+00 2.691240000000000077e+00 2.610689999999999955e+00 4.188270000000000159e+00 5.871129999999999960e+00 5.122569999999999624e+00 2.537599999999999856e-01 1.236722999999999928e+01 2.232470000000000176e+00 4.125090000000000146e+00 8.750730000000000786e+00 6.065680000000000405e+00 1.786580000000000057e+00 1.603453000000000017e+01 4.935940000000000438e+00 3.977160000000000029e+00 1.206118000000000023e+01 1.436860000000000026e+00 1.826969999999999983e+00 5.865750000000000242e+00 -2.166339999999999932e+00 4.397079999999999878e+00 6.321909999999999918e+00 4.967810000000000059e+00 4.088770000000000238e+00 1.883295000000000030e+01 4.919620000000000104e+00 1.268900000000000028e-01 5.546710000000000029e+00 -1.320850000000000080e+00 5.936230000000000118e+00 2.645809999999999995e+00 9.666700000000000292e-01 2.193900000000000183e+00 1.282698000000000071e+01 1.622819999999999929e+00 5.794080000000000119e+00 1.934694000000000003e+01 2.362359999999999793e+00 3.796499999999999875e-01 9.627039999999999154e+00 2.448869999999999880e+00 4.352859999999999729e+00 1.557506000000000057e+01 -1.038599999999999968e+00 6.057669999999999888e+00 1.525554999999999950e+01 2.852489999999999970e+00 3.994790000000000063e+00 3.115920000000000023e+00 1.737780000000000102e+00 2.058619999999999894e+00 1.846346000000000132e+01 -1.146900000000000031e+00 2.208439999999999959e+00 2.344819999999999904e+00 -9.933999999999999497e-01 2.090320000000000178e+00 9.112059999999999604e+00
-1.279360000000000053e+00 6.150830000000000020e+00 6.045999999999999985e-02 -1.138460000000000027e+00 2.053450000000000220e+00 6.513060000000000294e+00 4.873219999999999885e+00 4.274090000000000167e+00 9.176819999999999311e+00 -8.929300000000000015e-01 1.904479999999999951e+00 1.887558999999999898e+01 5.053139999999999965e+00 4.138029999999999653e+00 1.622929999999999851e+01 1.289670000000000094e+00 1.977289999999999992e+00 3.274500000000000188e+00 2.523550000000000182e+00 4.206610000000000404e+00 1.298654999999999937e+01 4.994130000000000180e+00 4.121999999999999970e-02 9.772349999999999426e+00 2.417870000000000186e+00 6.562999999999999390e-02 1.241513999999999918e+01 1.278319999999999901e+00 1.984459999999999891e+00 1.558689000000000036e+01 1.368400000000000061e+00 6.115879999999999761e+00 2.695230000000000015e+00 2.604560000000000208e+00 4.182470000000000354e+00 5.864760000000000417e+00 5.128129999999999633e+00 2.518099999999999783e-01 1.236087999999999987e+01 2.230150000000000077e+00 4.131099999999999994e+00 8.755620000000000402e+00 6.065109999999999779e+00 1.784340000000000037e+00 1.603706999999999994e+01 4.935120000000000395e+00 3.973390000000000200e+00 1.205593000000000004e+01 1.431869999999999976e+00 1.840160000000000018e+00 5.872189999999999799e+00 -2.170230000000000103e+00 4.397409999999999819e+00 6.324300000000000033e+00 4.964529999999999887e+00 4.080250000000000377e+00 1.883521000000000001e+01 4.933430000000000426e+00 1.270600000000000063e-01 5.531970000000000276e+00 -1.310119999999999951e+00 5.938100000000000378e+00 2.628460000000000019e+00 9.641600000000000170e-01 2.184229999999999894e+00 1.282598999999999911e+01 1.622069999999999901e+00 5.796529999999999738e+00 1.935335999999999856e+01 2.369870000000000143e+00 3.816899999999999737e-01 9.630330000000000723e+00 2.452160000000000117e+00 4.345460000000000100e+00 1.557496000000000080e+01 -1.039690000000000003e+00 6.062470000000000248e+00 1.525788999999999973e+01 2.848300000000000054e+00 4.005080000000000418e+00 3.110920000000000130e+00 1.746820000000000039e+00 2.061620000000000008e+00 1.846024999999999849e+01 -1.148889999999999967e+00 2.203149999999999942e+00 2.344359999999999999e+00 -9.884800000000000253e-01 2.096969999999999779e+00 9.113289999999999225e+00
-1.288520000000000110e+00 6.154639999999999667e+00 6.650999999999999968e-02 -1.134740000000000082e+00 2.055520000000000014e+00 6.512410000000000032e+00 4.876529999999999809e+00 4.267660000000000231e+00 9.182219999999999160e+00 -8.890400000000000524e-01 1.908199999999999896e+00 1.887167000000000172e+01 5.049629999999999619e+00 4.144140000000000157e+00 1.623002999999999929e+01 1.289520000000000000e+00 1.978949999999999987e+00 3.272870000000000168e+00 2.522800000000000153e+00 4.205650000000000333e+00 1.298042000000000051e+01 4.991460000000000008e+00 4.401000000000000051e-02 9.777240000000000819e+00 2.412809999999999899e+00 5.983000000000000124e-02 1.242554999999999943e+01 1.281770000000000076e+00 1.971610000000000085e+00 1.558880000000000088e+01 1.361469999999999958e+00 6.119229999999999947e+00 2.699320000000000164e+00 2.598430000000000017e+00 4.176619999999999777e+00 5.858349999999999724e+00 5.133779999999999788e+00 2.499099999999999933e-01 1.235449999999999982e+01 2.227939999999999809e+00 4.137059999999999960e+00 8.760640000000000427e+00 6.064619999999999678e+00 1.781870000000000065e+00 1.603966000000000136e+01 4.934090000000000309e+00 3.969190000000000218e+00 1.205059999999999931e+01 1.426670000000000105e+00 1.853429999999999911e+00 5.878949999999999676e+00 -2.174310000000000187e+00 4.397910000000000430e+00 6.326710000000000278e+00 4.961039999999999672e+00 4.071489999999999831e+00 1.883765999999999963e+01 4.947330000000000005e+00 1.271599999999999953e-01 5.516930000000000334e+00 -1.299250000000000016e+00 5.939899999999999736e+00 2.610970000000000013e+00 9.613699999999999468e-01 2.174310000000000187e+00 1.282484999999999964e+01 1.621129999999999960e+00 5.798820000000000086e+00 1.935976000000000141e+01 2.377740000000000187e+00 3.840000000000000080e-01 9.633580000000000254e+00 2.455680000000000085e+00 4.338049999999999962e+00 1.557511000000000045e+01 -1.040580000000000060e+00 6.067470000000000141e+00 1.526019999999999932e+01 2.844240000000000101e+00 4.015620000000000189e+00 3.105649999999999800e+00 1.755910000000000082e+00 2.064799999999999969e+00 1.845701000000000036e+01 -1.150640000000000107e+00 2.198119999999999852e+00 2.343919999999999781e+00 -9.833199999999999719e-01 2.103860000000000063e+00 9.114649999999999253e+00