-1.095829416800000047e+02
-1.095734540699999968e+02
-1.095439148800000027e+02
-1.094944693799999982e+02
-1.094267137300000030e+02
-1.093413563000000011e+02
-1.092370488399999999e+02
-1.091129551300000031e+02
-1.089716690099999994e+02
-1.088172908800000016e+02
-1.090440489599999978e+02
-1.090319958500000013e+02
-1.089989071800000033e+02
-1.089441803800000059e+02
-1.088690698799999979e+02
-1.087739307500000052e+02
-1.086568560300000001e+02
-1.085167497200000071e+02
-1.083567490300000031e+02
-1.081818308299999956e+02
-1.094208401399999957e+02
-1.093928890300000063e+02
-1.093459650199999942e+02
-1.092805223999999953e+02
-1.091984731000000011e+02
-1.091004560599999991e+02
-1.089849049500000007e+02
-1.088511886800000070e+02
-1.087024479800000023e+02
-1.085429851500000069e+02
-1.093152508299999965e+02
-1.093122718599999956e+02
-1.092952277100000060e+02
-1.092642092899999966e+02
-1.092204626900000051e+02
-1.091648833299999950e+02
-1.090969304300000005e+02
-1.090159445200000050e+02
-1.089232593899999983e+02
-1.088217669299999955e+02
-1.095265447299999977e+02
-1.095156527500000010e+02
-1.094867703000000034e+02
-1.094399116299999974e+02
-1.093764841800000056e+02
-1.092970731900000061e+02
-1.092003607399999936e+02
-1.090854572300000029e+02
-1.089546480300000013e+02
-1.088116954000000050e+02
