9.128051744209401876e-04 2.230447965842058660e-03 -6.247099994865795008e-02 6.618487443196363618e-02 -1.885215406488355630e-02 5.056989473896243009e-03 -2.280980654329474097e-02 1.125200722574701793e-02 -4.136399599711329533e-02 2.279880893654573706e-02 -1.124398190840846141e-02 -4.135700400075258132e-02 -6.619986790042020619e-02 1.885517890069938682e-02 5.062010528390144606e-03 -1.407118117623929257e-02 1.102106621913477233e-02 1.230600279127610185e-02 1.406618283543033254e-02 -1.102205961353168624e-02 1.230599720932841305e-02 -8.848974863895686443e-04 -2.274485900562139753e-03 -6.248300005862975071e-02 1.568139836837059578e-03 -3.444073362433772850e-02 3.788299706820379142e-02 -4.596639197887750043e-03 -1.383016725163749988e-02 4.866999953643080801e-02 -1.561134627830673997e-03 3.443771568547719653e-02 3.788300293060235108e-02 4.597654199157542518e-03 1.383115785988490477e-02 4.867200046350995263e-02 1.211466848060951673e-01 -2.719210083849600210e-02 -1.039720186900383453e-01 9.517542752066279754e-02 8.350325065576699041e-03 1.151839876612989061e-01 7.127909028105364198e-02 -5.384392273785687522e-02 1.359549860170825020e-01 -8.175607356009174931e-02 -1.005963999068244380e-01 -7.532599677284809725e-02 5.769417093625140401e-03 1.037862830462980973e-01 9.172500740165401290e-02 -7.127905485711286127e-02 5.384290128356455235e-02 1.359540139828354366e-01 2.265255347752096957e-03 -1.623189346367790234e-02 -2.697600159017809682e-02 -5.867094595477514996e-02 5.349292816273297502e-03 -2.560099156551595354e-02 -1.211547097744238854e-01 2.719413091833735446e-02 -1.039769813087081246e-01 -1.273845631410333579e-01 3.254277925436591806e-02 -4.588980035878188757e-03 -3.070157925469109775e-02 6.716494681961202723e-03 -1.063519952772636473e-01 3.067856049561300605e-02 -6.710438593931693750e-03 -1.063540047191175869e-01 -5.770395457439766833e-03 -1.037882958100129344e-01 9.172799259832306595e-02 5.867093896225013955e-02 -5.349288775954936376e-03 -2.560200843448340660e-02 1.273845653061309591e-01 -3.254077853307123236e-02 -4.589019963964349053e-03 -9.518135332200407250e-02 -8.325333023682289502e-03 1.151740123414852768e-01 8.176005298104188634e-02 1.005964049571556329e-01 -7.532200322769683210e-02 -2.258240506287477120e-03 1.624488573752861167e-02 -2.697999840975536315e-02
1.534422457768803462e-02 -1.626224982171134772e-02 -1.226000337869952161e-02 -5.449029737217468694e-02 4.725920357311101661e-02 3.432801117057647511e-02 2.701803179991621104e-02 6.318391442076333464e-02 -3.235799870400470762e-02 -1.613231883313448467e-02 3.961463560722130323e-02 -4.655899467098885414e-02 -2.742474281036495418e-02 1.160180484931031680e-01 -4.357998710001297765e-02 4.616415609015861454e-02 7.661108845855998765e-03 -4.427600569987561602e-02 -6.798907104249092559e-02 -6.200188330192318159e-02 3.401200439247618890e-02 5.667729222842501913e-02 8.788926155325342549e-02 -1.082510008049695632e-01 -2.630325811580503520e-02 -4.518311265119093201e-02 6.797700002679675502e-02 1.060942275576152172e-01 -4.032840199854534347e-02 2.690298232904083167e-02 -1.182560344759608266e-03 -4.070104358910171111e-02 6.888399694986524491e-02 -4.716302379849431764e-02 6.613570801826267054e-02 2.196101165943330907e-02 1.650440616286041329e-01 -3.812815109155447829e-02 -6.678602554781290501e-02 8.667575784657320648e-02 -3.942021340779933852e-02 7.326998505258316974e-02 9.718857431529361306e-04 -1.469278873286430087e-01 1.463249882735133955e-01 -4.805819512529459908e-02 -1.398930533785788521e-01 -9.872600447560507531e-02 1.458876314699868448e-01 1.002787788328706603e-01 1.273959879896753855e-01 -5.537417791123599997e-02 -1.177038152364405336e-02 1.568160066333875446e-01 2.332835500530484885e-02 -3.257692309134483516e-02 2.087699424359435244e-02 -5.464724013198659497e-02 -2.115562531242472233e-02 -1.242994206457886898e-03 -1.192578699610683801e-01 4.699492191410165054e-02 -1.577509800053121525e-01 -9.528925775184596270e-02 1.631611114277720098e-01 -5.740974112154120443e-03 -4.964071536418954156e-02 3.122390071044670035e-02 -8.873999075701823058e-02 2.453651055980842193e-03 -4.758525321485277543e-02 -1.294610040899336900e-01 -5.446938719118451372e-02 -1.142710709324096796e-01 7.001999842171532928e-02 1.189176752457627925e-02 9.213686536476112243e-03 1.251499910303599701e-02 8.531102909664228795e-02 -6.441091061344986213e-02 -1.118801673300611615e-02 -5.839547054228642203e-02 -3.182824414784105049e-02 1.244320054632664790e-01 5.972487642909804495e-02 1.566821553504350872e-01 -1.384229957928634624e-01 -5.567869841722751512e-02 -4.306989434674073081e-02 -7.699957948047960778e-04
2.934168346959904750e-02 -3.414620476180275921e-02 3.525099329855679170e-02 -1.848619415040723413e-01 1.119321324777303173e-01 6.701303407795190792e-02 7.630282678966426868e-02 1.127507463937282156e-01 -2.381700152335871484e-02 -5.445336820640235553e-02 8.759320601863683498e-02 -5.020298565179775324e-02 1.081658290255996940e-02 2.138838315267159451e-01 -9.250798460005189849e-02 1.073844795397609769e-01 5.462469724086431618e-03 -1.025540142339054911e-01 -1.475662485659946788e-01 -1.094289375469380404e-01 5.702201151754819619e-02 1.118365322241957616e-01 1.739891103068899880e-01 -1.540600015438247372e-01 -5.494156266515001774e-02 -5.645518155959370482e-02 9.726400304832566457e-02 2.223637901177693832e-01 -6.583917055209152769e-02 3.901964437714455780e-03 -2.386573415512117241e-03 -1.173520999520321489e-01 9.871299106592114347e-02 -9.813126161033558503e-02 1.163569006551550267e-01 -4.744977417254741224e-03 2.106180600339844777e-01 -4.811706584578655937e-02 -2.780903255981991701e-02 7.784407163612595826e-02 -8.837018603519704307e-02 3.052698239614182532e-02 -7.416570275537916201e-02 -2.425725993693848836e-01 1.568949909875412274e-01 -1.255583730082588875e-02 -1.794957915491551259e-01 -1.227340124489436080e-01 2.972053543511397056e-01 9.588913067265367185e-02 1.627149669786285557e-01 -3.951619176713276615e-02 -7.556458153436859670e-02 1.777379994338828817e-01 4.316263770197358712e-02 -4.764385064133097591e-02 7.050599034603168003e-02 -5.160026283729551161e-02 -4.691587293147331944e-02 2.364900334474726376e-02 -1.171795070410876632e-01 6.651640207883735556e-02 -2.096559787487447812e-01 -6.716156680504223320e-02 2.910832213542433045e-01 -7.850967859345464941e-03 -6.858782757122901252e-02 5.633032121198887354e-02 -7.072998618841595808e-02 -2.522762363228219645e-02 -8.633399391953984481e-02 -1.527620033672273392e-01 -1.044115037496413795e-01 -1.242407204626646278e-01 4.776900445536465256e-02 -3.407509899981702589e-02 2.336927279502062221e-02 5.103400649747751733e-02 4.282839948967886307e-02 -9.633534353164574515e-02 -1.772401345046527646e-02 -2.110621074990846543e-02 -5.511101534981545369e-02 1.337039985336745673e-01 3.728886935904589250e-02 2.146225935949599151e-01 -2.017849881569406256e-01 -1.070523873821542793e-01 -9.842616702150450148e-02 2.467800685298692648e-02
4.348396400499907055e-02 -5.213440717261224461e-02 7.997398994780879899e-02 -3.234634086678421228e-01 1.743751246367744867e-01 1.032730579332768600e-01 1.243640101558566580e-01 1.602056667685509694e-01 -1.579800434225747327e-02 -9.176415546564299641e-02 1.339690472574276148e-01 -5.320497689703878458e-02 4.693233752701812117e-02 3.108322463361611887e-01 -1.413839818821992778e-01 1.687899973560048894e-01 3.377514343234067334e-03 -1.624240227842578543e-01 -2.240771712954832684e-01 -1.526142266268829817e-01 8.083301855858811280e-02 1.641932164446014419e-01 2.550857419813488125e-01 -1.996740022947429138e-01 -8.438803354949157842e-02 -6.840887005069863636e-02 1.258510061264370983e-01 3.423507179902047781e-01 -8.996929100404021939e-02 -1.893905385233346853e-02 -4.170640345835334960e-03 -1.946191657072934844e-01 1.278619852125827405e-01 -1.492766867241037965e-01 1.641283925280125899e-01 -3.082396666304321534e-02 2.571346587999387978e-01 -5.717059048579528624e-02 1.246196037325417692e-02 6.892409663346549253e-02 -1.374890079782049301e-01 -1.259602026156706953e-02 -1.532801690628805835e-01 -3.387275147401077602e-01 1.680549942044115841e-01 2.402340091433916025e-02 -2.185843696228221278e-01 -1.466990205287765359e-01 4.586757254858113142e-01 9.128512893551660179e-02 1.965579445641685574e-01 -2.401647567893314475e-02 -1.365911650934745758e-01 1.982199925016908948e-01 6.166694443506018364e-02 -6.094050244013288209e-02 1.212229867697845326e-01 -4.964453880390611029e-02 -7.165325383782851498e-02 4.859200112569118934e-02 -1.146204588918765671e-01 8.526805932511521968e-02 -2.590909776185660318e-01 -4.295688839429338823e-02 4.149060307546826309e-01 -1.084196139425625503e-02 -8.726605131882596289e-02 8.195628285869528684e-02 -5.242998161553717035e-02 -5.178363879891723087e-02 -1.225916543381790902e-01 -1.759230026016259385e-01 -1.550419903567758217e-01 -1.338411928257319250e-01 2.516901061215325031e-02 -7.857233520228855406e-02 3.730734680663906622e-02 8.922401367405730088e-02 4.249782677029122560e-04 -1.281379116501273896e-01 -2.440801016912546098e-02 1.630840268261345496e-02 -7.818700051562012254e-02 1.430729916032797144e-01 1.523017109192060549e-02 2.733283880100469410e-01 -2.647459805121506471e-01 -1.557544195592134029e-01 -1.493049995777030459e-01 4.904900948923042459e-02
5.827364167013627388e-02 -7.047571650140320443e-02 1.227099864807848495e-01 -4.700011420260437056e-01 2.343286779015984755e-01 1.429260826759891911e-01 1.713650552276600181e-01 2.052403956713232946e-01 -8.082007207351953743e-03 -1.281257422927953304e-01 1.792912645670160787e-01 -5.656696835504304577e-02 8.173668409338621932e-02 4.063729005639122871e-01 -1.897109790963365239e-01 2.302089712501025065e-01 1.559536514341548124e-03 -2.242800313153846536e-01 -2.971942670536634745e-01 -1.918083108005428361e-01 1.051090254510911870e-01 2.134900084484120941e-01 3.315675969991919714e-01 -2.449720029919303654e-01 -1.150856803573364756e-01 -8.046442013240279190e-02 1.544960093673786450e-01 4.659077189845892697e-01 -1.128895117414864813e-01 -4.258907253446465868e-02 -6.966687153965170527e-03 -2.718735016286676354e-01 1.558109794984475494e-01 -2.009398015025089801e-01 2.103267669910484083e-01 -5.734595596226044201e-02 3.037191599089664740e-01 -6.511122957993820126e-02 5.308595338486669923e-02 6.013766325961179826e-02 -1.857060569013135043e-01 -5.514302286635767991e-02 -2.348576712300392555e-01 -4.337312185171134926e-01 1.793939978484864473e-01 6.075455164238983269e-02 -2.565542057635559758e-01 -1.700840285410808173e-01 6.267484457285008581e-01 8.629484177934740319e-02 2.283809212175702819e-01 -9.280995091380620302e-03 -1.936594365425047537e-01 2.178869859862065106e-01 7.859134718286661658e-02 -7.242445112812287422e-02 1.717029835523316283e-01 -4.877991777074835306e-02 -9.469476727234733826e-02 7.308999918945822960e-02 -1.119142034904079541e-01 1.029704631494698375e-01 -3.050809765912834148e-01 -2.303994809544305383e-02 5.318651589911146393e-01 -1.474995488520811082e-02 -1.050322678856351333e-01 1.075856856815458201e-01 -3.435297716693284931e-02 -7.670853878734607001e-02 -1.558580984044580231e-01 -1.985620018227467753e-01 -2.053733509537154223e-01 -1.427831755391588686e-01 2.920016780054047502e-03 -1.206434246150516892e-01 5.074427330372566908e-02 1.261740204797689169e-01 -4.076089784827786888e-02 -1.590375595372243156e-01 -3.100800698281151735e-02 5.298010595169204417e-02 -1.006247149103821487e-01 1.521369848247026424e-01 -5.884476940671064943e-03 3.314775678534291892e-01 -3.258349730402032018e-01 -2.010613944792625229e-01 -1.948876272610989557e-01 7.183901207974219272e-02
7.249036752666433714e-02 -8.820304537634460207e-02 1.623949831404518096e-01 -6.225113016872010352e-01 2.911124346302295662e-01 1.854131079842170904e-01 2.168674891609612965e-01 2.475786821707544882e-01 -8.240100805613242334e-04 -1.625581689213926873e-01 2.206101786108602414e-01 -5.984696039239004867e-02 1.145748717595646560e-01 4.988969109376857891e-01 -2.368019762800009642e-01 2.900852035575908205e-01 4.791967731802244186e-04 -2.871370395776269291e-01 -3.659385458528164325e-01 -2.270178633930804157e-01 1.295750320608367867e-01 2.590571538823442377e-01 4.024088185986168242e-01 -2.894510036248707507e-01 -1.462675230461095988e-01 -9.263414276038203776e-02 1.829390126654371340e-01 5.910749926833119838e-01 -1.344814828959232378e-01 -6.591109133170451606e-02 -1.057823059568284603e-02 -3.476624414269109953e-01 1.824919740113088718e-01 -2.515094575551615197e-01 2.538672685233071546e-01 -8.320394562052635390e-02 3.504086299894662027e-01 -7.190004643916206306e-02 9.422394647302652360e-02 5.144631349924201624e-02 -2.332892674659377552e-01 -9.708502543412060592e-02 -3.188566281531868274e-01 -5.272437812911933142e-01 1.910300019409116590e-01 9.773453439247281604e-02 -2.934524656873724324e-01 -1.930000365028153864e-01 8.015539559626851940e-01 8.059104578298588450e-02 2.581538968951943569e-01 4.849557547347070445e-03 -2.471746687821388677e-01 2.369289798336938480e-01 9.404075181833881913e-02 -8.215087611484238328e-02 2.221989806749919139e-01 -4.892114678580802845e-02 -1.164775596002675939e-01 9.726199748991141980e-02 -1.089833735354185512e-01 1.198384816703722822e-01 -3.481629756605076897e-01 -6.899892019539542211e-03 6.424597336112292112e-01 -1.944994836257951665e-02 -1.223333774342602043e-01 1.332772935989805785e-01 -1.613597277693437984e-02 -1.001007593107073185e-01 -1.863881582413776383e-01 -2.206820010372549656e-01 -2.553554676984647887e-01 -1.509977541560779957e-01 -1.913697704233810470e-02 -1.603592799440307637e-01 6.373117355379438742e-02 1.620280269283314867e-01 -8.092605764764264353e-02 -1.889339506203598917e-01 -3.754400385672562734e-02 8.886677609318843762e-02 -1.224960866598456682e-01 1.611819781980190491e-01 -2.646422801933308658e-02 3.889808323608780483e-01 -3.853769656922676479e-01 -2.434107557768673824e-01 -2.360183036307793580e-01 9.332501461764411421e-02
8.662740614835126585e-02 -1.063322385132976916e-01 2.004439797792884059e-01 -7.846723557842301133e-01 3.462106843820769164e-01 2.320751344774374114e-01 2.622254636810020800e-01 2.884782134861775815e-01 6.088986952425570059e-03 -1.961806751299489393e-01 2.601267057292486196e-01 -6.363395268256022419e-02 1.462231400310715634e-01 5.902989535208633676e-01 -2.838819733896945641e-01 3.503860894858180086e-01 -2.188680503951472760e-04 -3.529270478677042910e-01 -4.322905550661680918e-01 -2.591465004614179057e-01 1.546270385869968622e-01 3.027030257322955165e-01 4.695813187825554902e-01 -3.345390042849252232e-01 -1.790734128106643563e-01 -1.048300895909787256e-01 2.123400161832167954e-01 7.207123468800086252e-01 -1.554450936422464014e-01 -8.950811068983284546e-02 -1.500350452114391706e-02 -4.238779909407089375e-01 2.086389686016307532e-01 -3.022238566987880959e-01 2.958030151376396799e-01 -1.089959353856451013e-01 3.979997261550868859e-01 -7.773840316973466835e-02 1.368799395130479157e-01 4.262432797970636122e-02 -2.812442552432256604e-01 -1.396290280133818118e-01 -4.078670648873753968e-01 -6.210327786241173209e-01 2.031510066959194560e-01 1.356441277031015524e-01 -3.299943140590569923e-01 -2.156070445633841981e-01 9.881369395319732352e-01 7.398411790730032023e-02 2.864298708931460880e-01 1.847577717848112797e-02 -2.985440358314568887e-01 2.556089739193772581e-01 1.084766706503026146e-01 -9.040556674409720717e-02 2.736649780521876463e-01 -5.008282741375111313e-02 -1.373536064209998353e-01 1.217399960012710836e-01 -1.056223882990849350e-01 1.362117640881287395e-01 -3.893139748275128431e-01 6.337196144096735213e-03 7.495652650858590782e-01 -2.502694171881538962e-02 -1.393601438078475308e-01 1.597544337057926755e-01 2.753031637586817945e-03 -1.224175731601761657e-01 -2.149260533053976296e-01 -2.425950002414276885e-01 -3.063056549652432570e-01 -1.586676772546221081e-01 -4.148797068954336587e-02 -1.988612550080287589e-01 7.664699891944180832e-02 1.976520332055171358e-01 -1.211209149306565480e-01 -2.186532906500689710e-01 -4.438400071261165009e-02 1.247675060190427260e-01 -1.443324823987759131e-01 1.701959715721707844e-01 -4.685958271062936470e-02 4.467157819942062513e-01 -4.444369583512272626e-01 -2.839632571092609026e-01 -2.737220461816009531e-01 1.140840171805729969e-01
1.009603128466600025e-01 -1.251237673133235584e-01 2.375179763391095655e-01 -9.578009383625165629e-01 3.998386776859004232e-01 2.832981623524470915e-01 3.075774264846778405e-01 3.276157525373607493e-01 1.311098384719480876e-02 -2.288248596451141204e-01 2.986605592260477282e-01 -6.788894518386831556e-02 1.772030759895975860e-01 6.809221373220850637e-01 -3.308189704695734812e-01 4.111082032470573799e-01 -1.986514607207958165e-04 -4.223800561586368851e-01 -4.961098042103905814e-01 -2.884924626733270658e-01 1.800860449868532109e-01 3.443875332075908013e-01 5.336171669585912936e-01 -3.805640049246348244e-01 -2.128777729103902283e-01 -1.167153293854684415e-01 2.419750198618732251e-01 8.553666064305066596e-01 -1.758832785742978355e-01 -1.136971306916532559e-01 -2.030166080309473917e-02 -5.006090492290289351e-01 2.346389632704757866e-01 -3.532882793465534910e-01 3.371403591781633180e-01 -1.357279251501717077e-01 4.468674170869086915e-01 -8.264494059159135930e-02 1.808669324522509669e-01 3.363260255802299342e-02 -3.296319534657050632e-01 -1.828470306036094895e-01 -5.013752554846842013e-01 -7.152590889480306968e-01 2.158610120306602986e-01 1.742732243449806318e-01 -3.668273926467639501e-01 -2.381390527451995309e-01 1.185772537679492533e+00 6.655729746642717604e-02 3.135498433169774390e-01 3.155563832037942829e-02 -3.477824658861933260e-01 2.740549682478173876e-01 1.218971977118873534e-01 -9.713351964774201430e-02 3.260839756885191565e-01 -5.255162077166734141e-02 -1.571244174825998652e-01 1.465029947783475228e-01 -1.020146441465401288e-01 1.518586235342067881e-01 -4.289119740855352192e-01 1.628458665772989158e-02 8.539254155608488883e-01 -3.203293484242027839e-02 -1.556761421269792223e-01 1.872653603959054114e-01 2.199503603662041062e-02 -1.436854742904680182e-01 -2.417607387210037873e-01 -2.648709994544473090e-01 -3.586900572796037356e-01 -1.658771483044239603e-01 -6.386396410454563133e-02 -2.358606426462045991e-01 8.990525649644388884e-02 2.328590393045286144e-01 -1.608424174029922660e-01 -2.481654394433269184e-01 -5.163999761678979283e-02 1.610545158165253565e-01 -1.665905389829155370e-01 1.792489648602922092e-01 -6.681818769367078859e-02 5.048889857135423487e-01 -5.030609510352436198e-01 -3.230286055528838185e-01 -3.084123262428749568e-01 1.343150197781984856e-01
1.158375484728883381e-01 -1.443082269543632667e-01 2.728569727935851175e-01 -1.137681906752894267e+00 4.509062085785729423e-01 3.378791909475877819e-01 3.520632422281135265e-01 3.643277684786119797e-01 1.996198066885169001e-02 -2.598102940831980567e-01 3.352915747429403015e-01 -7.190393806184364189e-02 2.070461595288602963e-01 7.687072600585128646e-01 -3.770369676181416496e-01 4.704836109819477419e-01 5.798681426025434739e-04 -4.931820642058311610e-01 -5.567567472533011541e-01 -3.153218434239384305e-01 2.059120511520711461e-01 3.842137910850140226e-01 5.934131851267063773e-01 -4.269040056451314791e-01 -2.479573620239508280e-01 -1.281483888020888973e-01 2.714390237503666037e-01 9.924483289575597444e-01 -1.954676114963330991e-01 -1.378111509576290528e-01 -2.604342885910842370e-02 -5.759423471290260332e-01 2.593259581101919342e-01 -4.040516660573205132e-01 3.761581852839574469e-01 -1.618809151388252709e-01 4.957822873245117945e-01 -8.627655690199799443e-02 2.255509254856021273e-01 2.465304458275774033e-02 -3.773366715434658958e-01 -2.254160331416093510e-01 -5.974982579427448037e-01 -8.076179271774361901e-01 2.291570178698586480e-01 2.128585054815650690e-01 -4.023823945304931815e-01 -2.602430608201899975e-01 1.391133404693988274e+00 5.869627202718837727e-02 3.387358146515122570e-01 4.435634192451982927e-02 -3.936024137394892319e-01 2.917009628841203961e-01 1.338114583423715975e-01 -1.022608956531832203e-01 3.785329736568487369e-01 -5.587173614287020695e-02 -1.759127719799369605e-01 1.712009937492075251e-01 -9.839775427449413969e-02 1.670054664363661845e-01 -4.660379733842597849e-01 2.398160522012076148e-02 9.528044045347685564e-01 -3.994492809120295251e-02 -1.717872774841895100e-01 2.146959368396071932e-01 4.107704040134207285e-02 -1.635831077187337723e-01 -2.660997626160062079e-01 -2.868939986576684587e-01 -4.104721512249224769e-01 -1.723216476777030548e-01 -8.633795754143160084e-02 -2.703705758665901349e-01 1.028422586188317278e-01 2.671480450382255345e-01 -1.996548188477491048e-01 -2.764491403062627195e-01 -5.880599454818162541e-02 1.963065954156470727e-01 -1.882218257396596761e-01 1.885279583391987202e-01 -8.650671565166931365e-02 5.619367260190430979e-01 -5.597789438449431998e-01 -3.597496163012338100e-01 -3.393966078116845142e-01 1.534590223481067939e-01
1.314730202546474380e-01 -1.633549821941421842e-01 3.057019691553728991e-01 -1.319763637024759406e+00 4.986044958988475884e-01 3.942952195774572233e-01 3.945442116695282997e-01 3.982062071271965653e-01 2.643797754070257092e-02 -2.886465742162092063e-01 3.702559143826877341e-01 -7.617893136482153937e-02 2.351539490950828315e-01 8.516413416187144092e-01 -4.212489649125126245e-01 5.278668317920983677e-01 1.835793647719108010e-03 -5.641140719433043182e-01 -6.127875300956239224e-01 -3.391361099005168467e-01 2.306450569248108817e-01 4.213047769104528717e-01 6.477868706074441096e-01 -4.724370064199542862e-01 -2.834910532499604341e-01 -1.390556712264498784e-01 2.998300277423686100e-01 1.128432711167754787e+00 -2.140800672986876985e-01 -1.612951709970892600e-01 -3.185229656287962702e-02 -6.484085260219523139e-01 2.823289531853039880e-01 -4.539346177286788242e-01 4.130895033236906544e-01 -1.869149054123421527e-01 5.437380562090690095e-01 -8.879653217076129146e-02 2.700239187376374805e-01 1.608714233534773441e-02 -4.234880944541205561e-01 -2.671470356135364765e-01 -6.943485982460617656e-01 -8.960785166225082587e-01 2.428540241159991009e-01 2.504361043866089043e-01 -4.365806721541874436e-01 -2.807630686505214190e-01 1.598712316143240386e+00 5.027445492121613430e-02 3.619607856388456502e-01 5.620392154821877290e-02 -4.359837273819367476e-01 3.085839579219158968e-01 1.444338554390472151e-01 -1.055520607381636722e-01 4.295729719464894125e-01 -6.032223648677979833e-02 -1.931701920949444318e-01 1.952789929952407355e-01 -9.457397012496941702e-02 1.809199536671657893e-01 -5.002869728084792245e-01 2.914300096807814766e-02 1.044885717638968314e+00 -4.859392153009003262e-02 -1.869512296221340908e-01 2.422328944312340526e-01 6.039004464511270320e-02 -1.815035117938109954e-01 -2.879661625528975866e-01 -3.080919979357985006e-01 -4.614058344239659881e-01 -1.779415961127885359e-01 -1.078869510291068090e-01 -3.022578755133537021e-01 1.155627777966899417e-01 2.998120503966890671e-01 -2.366869051848349004e-01 -3.033798821746152563e-01 -6.645099161593862047e-02 2.300229797831233602e-01 -2.096734873097016449e-01 1.975469520419923242e-01 -1.051517282609001486e-01 6.163596786841031294e-01 -6.143099370042576224e-01 -3.940266910734006034e-01 -3.669100615650899844e-01 1.716550248581404370e-01
3.207220000000000071e-01 1.499520000000000020e-01 -2.200759999999999939e-01 3.451150000000000051e-01 7.768600000000000505e-02 -1.992700000000000027e-01 -3.020950000000000024e-01 -1.985540000000000083e-01 -1.247090000000000004e-01 3.021289999999999809e-01 1.752380000000000049e-01 -9.703199999999999326e-02 -5.229169999999999652e-01 -1.005230000000000012e-01 -1.533269999999999911e-01 -3.977310000000000012e-01 -1.115509999999999974e-01 -2.846369999999999734e-01 3.072799999999999976e-01 2.122030000000000027e-01 -3.172559999999999825e-01 -4.350609999999999755e-01 -1.192060000000000064e-01 -1.127390000000000059e-01 3.191359999999999753e-01 2.428160000000000041e-01 9.784400000000000042e-02 -1.922369999999999912e-01 -1.558170000000000111e-01 2.290190000000000003e-01 -2.707189999999999874e-01 -2.730219999999999869e-01 1.192850000000000021e-01 2.477179999999999938e-01 1.611940000000000039e-01 2.368280000000000107e-01 -2.182699999999999918e-02 1.800380000000000036e-01 1.063219999999999998e-01 2.575100000000000167e-01 -3.213880000000000070e-01 8.624500000000000222e-02 1.988830000000000042e-01 -4.199499999999999900e-01 1.529900000000000010e-02 -4.085360000000000102e-01 -6.984599999999999698e-01 1.336299999999999988e-02 -2.532630000000000159e-01 -2.842649999999999899e-01 4.597760000000000180e-01 -2.104379999999999862e-01 3.486029999999999962e-01 -3.063600000000000004e-02 -3.045829999999999926e-01 -2.140219999999999900e-01 2.778340000000000254e-01 -3.634709999999999885e-01 -2.199019999999999864e-01 -4.351300000000000306e-02 -3.447599999999999970e-02 -2.368699999999999972e-01 2.196049999999999947e-01 -4.767899999999999916e-01 -1.945099999999999885e-01 -2.684570000000000012e-01 -3.667279999999999984e-01 -4.794919999999999738e-01 -2.584679999999999755e-01 4.884270000000000000e-01 5.176380000000000425e-01 -2.164750000000000008e-01 3.451739999999999808e-01 2.766359999999999930e-01 5.733249999999999735e-01 3.906279999999999752e-01 2.946469999999999922e-01 -1.342069999999999930e-01 4.264919999999999822e-01 1.902790000000000037e-01 -3.481360000000000010e-01 -2.330909999999999926e-01 2.324650000000000050e-01 7.693099999999999938e-02 5.231019999999999559e-01 6.824780000000000291e-01 5.502200000000000146e-02 3.212169999999999748e-01 2.862979999999999969e-01 2.424179999999999946e-01
3.659600000000000075e-01 1.046450000000000019e-01 -3.808759999999999923e-01 2.779889999999999861e-01 1.046330000000000038e-01 -1.721519999999999995e-01 -3.262800000000000145e-01 -1.085070000000000062e-01 -1.479640000000000122e-01 3.041059999999999874e-01 1.174970000000000042e-01 -8.919599999999999751e-02 -4.921010000000000106e-01 -1.843059999999999976e-01 -1.243269999999999931e-01 -3.779259999999999842e-01 -1.192000000000000004e-01 -2.668960000000000221e-01 2.726029999999999842e-01 1.583890000000000020e-01 -2.808120000000000061e-01 -3.844980000000000064e-01 -9.567100000000000604e-02 -1.859490000000000032e-01 3.825930000000000164e-01 2.455279999999999963e-01 4.698000000000000093e-02 -2.614799999999999902e-01 -4.458800000000000263e-02 2.286420000000000119e-01 -2.190100000000000102e-01 -2.758329999999999949e-01 7.483900000000000274e-02 3.403360000000000274e-01 2.320560000000000123e-01 2.700739999999999807e-01 -6.107599999999999835e-02 1.857509999999999994e-01 2.015939999999999954e-01 2.894129999999999758e-01 -3.304920000000000080e-01 6.093200000000000005e-02 2.054709999999999870e-01 -3.655189999999999828e-01 6.962000000000000306e-03 -4.020509999999999917e-01 -7.098459999999999770e-01 3.803299999999999736e-02 -2.178809999999999913e-01 -3.903710000000000235e-01 3.852119999999999989e-01 -2.303610000000000102e-01 3.339420000000000166e-01 -3.945099999999999996e-02 -2.882480000000000042e-01 -1.386570000000000025e-01 2.692999999999999838e-01 -4.083180000000000143e-01 -1.754789999999999961e-01 2.144400000000000125e-02 -1.604770000000000085e-01 -2.082970000000000099e-01 4.327949999999999853e-01 -4.620119999999999783e-01 -1.134430000000000022e-01 -2.438869999999999927e-01 -3.774500000000000077e-01 -4.521649999999999836e-01 -2.938540000000000041e-01 4.188259999999999761e-01 4.712299999999999822e-01 -2.129620000000000124e-01 3.094199999999999728e-01 2.701640000000000152e-01 5.202799999999999647e-01 4.617080000000000073e-01 2.070019999999999916e-01 -1.446679999999999910e-01 4.349060000000000148e-01 9.196300000000000308e-02 -3.393320000000000225e-01 -2.763200000000000101e-01 2.405690000000000051e-01 8.056199999999999473e-02 5.716560000000000530e-01 7.409740000000000215e-01 4.970100000000000212e-02 3.114430000000000254e-01 2.074479999999999935e-01 2.352910000000000001e-01
4.065659999999999830e-01 6.078999999999999682e-02 -5.565550000000000219e-01 2.048740000000000006e-01 1.317770000000000052e-01 -1.439709999999999879e-01 -3.502210000000000045e-01 -1.643800000000000122e-02 -1.716580000000000050e-01 3.046179999999999999e-01 5.820600000000000079e-02 -8.055600000000000260e-02 -4.582060000000000022e-01 -2.669889999999999763e-01 -9.362199999999999689e-02 -3.557679999999999731e-01 -1.242729999999999946e-01 -2.481599999999999917e-01 2.357990000000000086e-01 1.030449999999999977e-01 -2.422920000000000074e-01 -3.301810000000000023e-01 -7.295599999999999308e-02 -2.626720000000000166e-01 4.425749999999999962e-01 2.433800000000000130e-01 -5.250000000000000326e-03 -3.358329999999999926e-01 7.516100000000000558e-02 2.279519999999999880e-01 -1.616140000000000077e-01 -2.749699999999999922e-01 2.705300000000000066e-02 4.351090000000000235e-01 3.081220000000000070e-01 3.005079999999999973e-01 -9.818399999999999350e-02 1.915530000000000010e-01 3.013179999999999747e-01 3.201379999999999781e-01 -3.390540000000000220e-01 3.615899999999999670e-02 2.119000000000000050e-01 -3.109600000000000142e-01 -1.616000000000000032e-03 -3.919130000000000114e-01 -7.168139999999999512e-01 6.385200000000000597e-02 -1.813289999999999902e-01 -5.020869999999999500e-01 3.089759999999999729e-01 -2.491269999999999873e-01 3.175919999999999854e-01 -4.814199999999999730e-02 -2.718880000000000186e-01 -6.145799999999999874e-02 2.592679999999999985e-01 -4.513490000000000002e-01 -1.280129999999999879e-01 9.304500000000000270e-02 -2.912859999999999894e-01 -1.822429999999999883e-01 6.607480000000000020e-01 -4.468630000000000102e-01 -3.024100000000000052e-02 -2.183410000000000073e-01 -3.840450000000000252e-01 -4.225619999999999932e-01 -3.305259999999999865e-01 3.442490000000000272e-01 4.239080000000000070e-01 -2.090460000000000096e-01 2.706009999999999804e-01 2.629270000000000218e-01 4.636049999999999893e-01 5.369620000000000504e-01 1.101909999999999973e-01 -1.541540000000000132e-01 4.428039999999999754e-01 -1.027999999999999921e-02 -3.291490000000000249e-01 -3.179739999999999789e-01 2.476180000000000048e-01 8.408699999999999508e-02 6.176960000000000228e-01 7.970530000000000115e-01 4.313100000000000267e-02 3.024040000000000061e-01 1.263140000000000096e-01 2.270260000000000056e-01