1.996840000000000004e-01 -2.102100000000000149e-02 -4.580839999999999912e-01 1.903169999999999862e-01 -3.710600000000000009e-02 -7.916649999999999521e-01 -1.303149999999999864e-01 3.399949999999999917e-01 -2.866300000000000098e-02 -7.196489999999999831e-01 -2.770850000000000257e-01 4.650940000000000074e-01 -1.442500000000000032e-02 3.094330000000000136e-01 4.273629999999999929e-01 1.057447999999999944e+00 6.263910000000000311e-01 1.189290000000000069e-01 1.005879999999999969e-01 -8.737300000000000622e-02 6.733899999999999608e-02 -1.927909999999999902e-01 -8.517700000000000271e-02 9.471899999999999764e-02 1.459159999999999902e-01 -2.474329999999999863e-01 -2.167719999999999925e-01 5.854169999999999652e-01 -3.986959999999999948e-01 1.676670000000000105e-01 -2.074880000000000058e-01 2.423399999999999860e-02 5.541789999999999772e-01 1.312299999999999925e-02 4.190740000000000021e-01 7.709780000000000522e-01 -2.393160000000000009e-01 2.369140000000000135e-01 -1.388119999999999910e-01 1.611829999999999929e-01 -4.431700000000000084e-01 -4.460959999999999925e-01 -5.454430000000000112e-01 -1.981960000000000111e-01 -7.379900000000000349e-02 -2.070160000000000056e-01 -1.892479999999999996e-01 -1.907800000000000121e-02 -1.107270000000000060e-01 1.602709999999999968e-01 2.215200000000000155e-02 -3.197000000000000189e-03 -6.018600000000000338e-02 -2.802439999999999931e-01 8.061400000000000510e-02 -2.991960000000000175e-01 9.885800000000000143e-02 -1.639239999999999864e-01 2.275739999999999985e-01 -3.340620000000000256e-01
-1.961880000000000013e-01 -1.608519999999999950e-01 -1.113000999999999907e+00 1.637230000000000074e-01 -4.934109999999999885e-01 -3.913820000000000077e-01 1.857499999999999984e-01 1.030750000000000000e-01 -5.270740000000000425e-01 -1.730869999999999909e-01 1.334730000000000083e-01 1.488450000000000051e-01 -8.648850000000000149e-01 2.774739999999999984e-01 -1.706149999999999889e-01 -5.665160000000000196e-01 4.262230000000000185e-01 6.136700000000000488e-01 5.376800000000000468e-01 2.571789999999999909e-01 3.306470000000000242e-01 4.986299999999999760e-02 -4.709369999999999945e-01 1.954970000000000041e-01 -7.122599999999999765e-02 3.097670000000000146e-01 5.327340000000000408e-01 4.847850000000000215e-01 -2.366100000000000148e-02 3.111999999999999836e-02 6.271440000000000348e-01 3.573459999999999970e-01 3.248399999999999899e-02 -7.544370000000000243e-01 2.472999999999999938e-03 -2.154480000000000006e-01 7.729900000000000659e-02 -2.837410000000000210e-01 1.803499999999999895e-02 4.323930000000000273e-01 6.364549999999999930e-01 -1.035159999999999969e-01 -4.203149999999999942e-01 -7.068959999999999688e-01 1.078684999999999894e+00 1.613159999999999872e-01 9.911599999999999577e-02 3.443689999999999807e-01 -6.605360000000000120e-01 3.108500000000000152e-02 -8.720160000000000133e-01 7.401389999999999914e-01 -2.802259999999999751e-01 9.498900000000000399e-02 -3.238340000000000107e-01 -2.970050000000000190e-01 -1.089839999999999975e-01 5.709300000000000486e-01 8.306399999999999895e-02 8.096200000000000618e-02
1.267099999999999997e-02 3.033299999999999885e-02 4.311999999999999861e-02 1.244999999999999926e-02 -2.045500000000000096e-02 2.253600000000000048e-02 3.416500000000000092e-02 -1.323900000000000077e-02 2.495299999999999949e-02 -4.239799999999999819e-02 -1.136000000000000031e-02 4.715199999999999947e-02 1.069999999999999988e-03 -1.663200000000000095e-02 -1.864729999999999999e-01 -5.559999999999999838e-03 6.013000000000000116e-03 3.314000000000000279e-02 2.669900000000000051e-02 -6.022999999999999708e-03 -8.752100000000000157e-02 -8.262999999999999512e-03 -8.789999999999999203e-03 -2.875899999999999984e-02 -5.892900000000000221e-02 3.641999999999999838e-03 -4.171600000000000308e-02 2.573599999999999846e-02 -7.218999999999999723e-03 -3.708600000000000091e-02 1.230099999999999943e-02 -1.182700000000000071e-02 -1.863700000000000079e-02 1.789999999999999925e-03 3.400999999999999943e-03 -4.272999999999999889e-03 2.557500000000000051e-02 -9.332999999999999283e-03 -1.209200000000000032e-02 -2.378900000000000112e-02 2.627799999999999928e-02 -1.002000000000000069e-03 -8.262999999999999512e-03 -6.244999999999999683e-03 -1.423800000000000066e-02 -6.563000000000000257e-03 4.198500000000000149e-02 2.024899999999999964e-02 -1.922000000000000097e-03 2.049999999999999956e-04 1.573880000000000001e-01 1.474999999999999966e-03 8.149999999999999693e-04 -1.021599999999999939e-02 4.420000000000000318e-03 -2.090000000000000115e-04 6.937000000000000111e-02 -2.664000000000000135e-03 -1.340999999999999961e-03 2.410500000000000143e-02
1.818200000000000024e-02 2.627000000000000168e-02 1.982700000000000087e-02 1.053399999999999996e-02 -3.175999999999999657e-02 -1.000999999999999980e-02 1.001699999999999986e-02 1.205200000000000021e-02 2.589500000000000135e-02 6.265400000000000136e-02 -2.450000000000000094e-02 -9.497000000000000233e-03 -1.356399999999999967e-02 7.788999999999999917e-03 -1.765200000000000102e-02 -5.873999999999999881e-03 2.867999999999999890e-03 -2.717200000000000171e-02 2.033400000000000138e-02 -4.335000000000000311e-03 6.070000000000000092e-04 2.252000000000000095e-03 2.994000000000000133e-03 -1.653299999999999909e-02 -7.500999999999999855e-03 -2.410800000000000096e-02 -1.753800000000000150e-02 -3.702099999999999835e-02 3.929900000000000060e-02 3.214499999999999996e-02 -1.251299999999999982e-02 -2.066499999999999934e-02 -3.105199999999999974e-02 -4.559599999999999764e-02 -1.135199999999999924e-02 -1.711999999999999980e-03 1.612399999999999944e-02 3.972999999999999969e-03 -2.691699999999999995e-02 -1.299000000000000024e-03 -2.425000000000000072e-03 -4.469499999999999862e-02 -1.793499999999999955e-02 2.462500000000000105e-02 -2.723100000000000173e-02 7.879999999999999635e-04 7.159999999999999481e-04 3.905000000000000051e-03 2.641000000000000118e-03 3.041999999999999999e-03 4.653399999999999898e-02 -1.670000000000000043e-03 -5.399999999999999798e-05 5.500499999999999834e-02 -7.900000000000000121e-04 2.379000000000000038e-03 2.402200000000000168e-02 2.380000000000000117e-04 -6.804000000000000152e-03 2.207100000000000034e-02
-1.614109999999999989e-01 5.747970000000000024e-01 7.927299999999999625e-02 3.810999999999999943e-01 -1.412980000000000069e-01 -2.298020000000000063e-01 5.479110000000000369e-01 1.410999999999999928e-02 -6.347700000000000564e-02 -5.210709999999999509e-01 -1.420869999999999911e-01 -2.677930000000000033e-01 9.229540000000000521e-01 7.902369999999999672e-01 3.469860000000000166e-01 6.297009999999999552e-01 -3.367749999999999910e-01 1.087700000000000056e-01 2.933990000000000209e-01 3.468120000000000092e-01 -1.234220000000000039e-01 1.725569999999999882e-01 6.921960000000000335e-01 -1.582629999999999870e-01 -4.673200000000000270e-02 1.108770000000000033e-01 3.623979999999999979e-01 1.526919999999999944e-01 -2.868649999999999811e-01 -2.268739999999999923e-01 -3.111769999999999814e-01 -5.632000000000000201e-02 -4.712060000000000137e-01 5.482399999999999773e-02 1.804999999999999964e-03 2.554299999999999904e-01 -1.004200000000000058e-02 -1.437039999999999984e-01 1.127610000000000001e-01 -2.889240000000000141e-01 6.359129999999999505e-01 2.766410000000000258e-01 -4.453739999999999921e-01 -2.639230000000000187e-01 -2.475940000000000085e-01 -6.900929999999999565e-01 -5.867799999999999683e-01 2.483120000000000049e-01 -4.273359999999999936e-01 -7.327500000000000679e-02 8.700900000000000301e-02 1.789370000000000127e-01 -2.570410000000000195e-01 -6.683300000000000352e-02 -1.904069999999999929e-01 -6.654579999999999940e-01 2.662720000000000087e-01 -2.415080000000000005e-01 -2.132199999999999929e-01 -2.885880000000000112e-01
7.536739999999999551e-01 -1.529369999999999896e-01 -1.078210000000000002e-01 7.952200000000000379e-01 1.129925999999999986e+00 6.066340000000000066e-01 -6.451780000000000292e-01 -1.425604000000000093e+00 2.899729999999999808e-01 1.375909999999999911e-01 -1.392930000000000001e-01 1.598580000000000001e-01 5.978799999999999670e-01 -3.768400000000000222e-02 8.903600000000000403e-02 -7.892209999999999503e-01 8.400840000000000529e-01 -5.238999999999999733e-03 -4.080949999999999855e-01 -1.031390000000000029e+00 -1.309490000000000098e-01 1.553579999999999961e-01 5.526200000000000001e-01 -6.363320000000000087e-01 6.366600000000000037e-02 -4.587100000000000205e-02 2.137969999999999871e-01 -2.481329999999999925e-01 9.349939999999999918e-01 -9.093449999999999589e-01 -3.852809999999999846e-01 -4.568490000000000051e-01 6.552170000000000494e-01 -4.120699999999999918e-01 -6.569899999999999352e-02 -9.421000000000000207e-02 1.532050000000000078e-01 -4.076310000000000211e-01 1.856639999999999957e-01 -1.903140000000000109e-01 1.688900000000000123e-02 3.006030000000000091e-01 -1.391900000000000082e-01 -4.324399999999999772e-02 -2.627709999999999768e-01 7.081279999999999797e-01 -3.677039999999999753e-01 -5.748560000000000336e-01 -4.930100000000000038e-01 3.960420000000000051e-01 3.804910000000000236e-01 5.639899999999999775e-02 6.861499999999999544e-02 -2.548409999999999842e-01 8.402800000000000269e-01 6.377909999999999968e-01 -2.371949999999999892e-01 -5.509079999999999533e-01 -4.030540000000000234e-01 3.322869999999999990e-01
7.353769999999999474e-01 4.794399999999999773e-01 4.108470000000000177e-01 5.190259999999999874e-01 5.771400000000000141e-02 -1.436768999999999963e+00 1.854840000000000100e-01 -3.300669999999999993e-01 -4.292900000000000049e-01 -9.902400000000000091e-02 -3.161490000000000133e-01 -8.791100000000000303e-02 3.099100000000000188e-01 7.105000000000000204e-01 3.146820000000000173e-01 1.186999999999999904e-03 1.563869999999999982e-01 1.712710000000000066e-01 -3.032679999999999820e-01 2.124900000000000053e-02 -1.375109999999999943e-01 -4.206499999999999823e-02 -5.149340000000000028e-01 1.160940000000000027e-01 -7.534589999999999899e-01 -1.872189999999999965e-01 -2.826199999999999893e-02 -1.461739999999999984e-01 4.931070000000000175e-01 -2.258200000000000138e-02 -6.639100000000000557e-02 -7.864799999999999569e-02 6.579699999999999438e-02 -3.468149999999999844e-01 3.928100000000000341e-02 4.742549999999999821e-01 3.494039999999999924e-01 -4.339040000000000119e-01 -6.516199999999999770e-02 6.822430000000000438e-01 3.966299999999999687e-02 -2.386570000000000080e-01 -3.776849999999999929e-01 -3.371469999999999745e-01 -3.201789999999999914e-01 -8.356209999999999471e-01 -2.062970000000000081e-01 8.012179999999999858e-01 -2.950900000000000190e-01 7.258000000000000007e-01 1.549260000000000081e-01 1.186939999999999940e-01 3.407109999999999861e-01 3.370100000000000179e-02 1.815700000000000092e-01 -8.004820000000000269e-01 2.782300000000000051e-02 1.826979999999999993e-01 1.409960000000000102e-01 1.957099999999999951e-01
7.459300000000000652e-02 2.517969999999999930e-01 -7.148839999999999639e-01 2.621589999999999754e-01 1.760410000000000030e-01 2.214419999999999999e-01 -4.372949999999999893e-01 -9.060600000000000598e-02 -1.469199999999999950e-01 -6.335769999999999458e-01 1.327750000000000041e-01 -2.573699999999999946e-02 -1.088338000000000028e+00 1.085379999999999956e-01 3.203570000000000029e-01 -8.642500000000000182e-02 -4.575420000000000043e-01 -3.360560000000000214e-01 -3.596119999999999872e-01 -9.696000000000000452e-02 -3.183289999999999731e-01 -4.055159999999999876e-01 -1.399049999999999905e+00 1.108930000000000055e-01 3.085129999999999817e-01 1.565249999999999975e-01 8.097000000000000031e-03 1.963179999999999925e-01 -7.532450000000000534e-01 -7.670699999999999741e-02 1.937589999999999868e-01 5.360359999999999570e-01 2.407799999999999940e-01 -1.790750000000000119e-01 -5.931459999999999511e-01 1.785140000000000060e-01 -8.213499999999999968e-02 6.641500000000000181e-01 -1.865330000000000044e-01 6.030870000000000397e-01 -2.801429999999999754e-01 7.647410000000000041e-01 4.478880000000000083e-01 1.018749999999999933e-01 5.356779999999999875e-01 4.307190000000000185e-01 4.519200000000000300e-02 2.090589999999999948e-01 9.982599999999999807e-02 1.374846999999999930e+00 5.245199999999999863e-02 -1.343500000000000076e-02 5.233149999999999746e-01 -3.462749999999999995e-01 3.670359999999999734e-01 -1.020885999999999960e+00 -7.367600000000000537e-02 3.015090000000000270e-01 6.204859999999999820e-01 -4.168979999999999908e-01
2.929669999999999774e-01 3.676280000000000103e-01 -1.850529999999999953e-01 1.045979999999999965e-01 5.070999999999999987e-03 -2.370600000000000138e-02 2.846910000000000274e-01 4.920299999999999674e-02 -3.193819999999999992e-01 1.189449999999999952e-01 -7.581599999999999451e-02 1.065900000000000042e-01 -2.457580000000000042e-01 1.448540000000000105e-01 -6.591600000000000237e-02 4.900299999999999795e-02 4.530460000000000043e-01 -3.724560000000000093e-01 1.448510000000000075e-01 5.327099999999999891e-02 -2.628920000000000146e-01 -5.976590000000000513e-01 3.892439999999999789e-01 -3.912299999999999806e-02 1.389999999999999905e-04 1.666239999999999943e-01 -2.283599999999999866e-02 2.668099999999999986e-02 -1.842090000000000116e-01 5.528500000000000081e-02 -3.406540000000000123e-01 -1.114340000000000053e-01 7.459799999999999764e-02 -2.544879999999999920e-01 -4.190659999999999941e-01 2.605279999999999818e-01 -2.620520000000000072e-01 3.207530000000000103e-01 -8.495700000000000474e-02 3.810000000000000019e-03 -3.334299999999999764e-02 3.363099999999999978e-01 -1.253839999999999955e-01 2.919129999999999781e-01 6.163509999999999822e-01 3.389730000000000243e-01 3.329900000000000082e-01 1.995389999999999942e-01 6.745000000000000127e-03 -9.179969999999999519e-01 1.919720000000000037e-01 3.077949999999999853e-01 -2.365009999999999890e-01 -3.272920000000000273e-01 -2.595819999999999794e-01 -7.730150000000000077e-01 -2.895929999999999893e-01 4.063780000000000170e-01 1.767839999999999967e-01 1.520340000000000025e-01
-6.957969999999999988e-01 -4.024559999999999804e-01 -8.367909999999999515e-01 4.295629999999999726e-01 1.103987000000000052e+00 8.064230000000000009e-01 5.386980000000000102e-01 -6.886069999999999691e-01 3.293820000000000081e-01 -2.305099999999999927e-01 5.237779999999999658e-01 -6.190560000000000507e-01 -1.299177000000000026e+00 2.308870000000000089e-01 -1.341430000000000122e-01 4.622749999999999915e-01 -2.367299999999999960e-01 -3.805859999999999799e-01 2.599620000000000264e-01 -2.706339999999999857e-01 3.297510000000000163e-01 -4.060440000000000160e-01 -1.390757000000000021e+00 -2.561993999999999883e+00 -4.085099999999999842e-02 -2.284720000000000084e-01 1.592790000000000039e-01 -4.939819999999999767e-01 -1.063300000000000009e-02 -4.154510000000000147e-01 -4.220690000000000275e-01 -9.558999999999999789e-03 1.744229999999999947e-01 5.998569999999999736e-01 2.468899999999999914e-02 -2.973599999999999854e-02 3.081519999999999815e-01 3.991499999999999909e-02 -1.446409999999999918e-01 9.399429999999999730e-01 -3.329280000000000017e-01 1.277500000000000024e-01 -4.133979999999999877e-01 2.824400000000000244e-01 -1.473319999999999907e-01 3.610800000000000121e-01 2.436409999999999965e-01 5.143999999999999961e-02 -2.366689999999999905e-01 1.442431000000000019e+00 2.059509999999999952e+00 1.417009999999999936e-01 2.736660000000000204e-01 6.804699999999999638e-02 -6.089300000000000268e-02 -5.393580000000000041e-01 2.895940000000000181e-01 2.581590000000000273e-01 -5.529900000000000093e-02 8.741299999999999626e-01
-3.425099999999999673e-02 4.595549999999999913e-01 6.882859999999999534e-01 3.210939999999999905e-01 -1.411939999999999862e-01 -8.953800000000000647e-02 2.043590000000000129e-01 -6.171550000000000091e-01 -2.298389999999999878e-01 2.300300000000000122e-01 -1.643050000000000066e-01 3.216149999999999842e-01 -5.577659999999999840e-01 5.696729999999999849e-01 -3.562919999999999976e-01 -2.294879999999999975e-01 -2.429860000000000075e-01 2.378740000000000021e-01 3.649060000000000081e-01 2.438500000000000112e-01 -2.519440000000000013e-01 5.417380000000000528e-01 5.167700000000000071e-02 1.156999999999999973e-01 -7.583560000000000301e-01 2.599040000000000239e-01 1.161240000000000050e-01 -3.198159999999999892e-01 3.823639999999999817e-01 -1.685119999999999951e-01 2.760819999999999941e-01 1.865149999999999864e-01 9.956199999999999772e-02 -1.722609999999999975e-01 8.528600000000000070e-02 -7.631999999999999895e-03 6.688779999999999726e-01 -3.822530000000000094e-01 2.195809999999999984e-01 4.575969999999999760e-01 1.110399999999999929e-02 -7.509730000000000016e-01 1.548019999999999952e-01 -1.697059999999999957e-01 -5.707830000000000403e-01 4.716200000000000253e-02 -1.421050000000000091e-01 5.142309999999999937e-01 -7.252599999999999325e-02 -9.223660000000000192e-01 8.487699999999999412e-02 -2.174270000000000092e-01 1.334569999999999923e-01 -1.122760000000000008e-01 -7.329809999999999937e-01 3.060050000000000270e-01 1.266329999999999956e-01 -1.717760000000000120e-01 9.267999999999999849e-02 1.330600000000000012e-02
9.317400000000000682e-02 -5.294900000000000301e-02 -6.560409999999999853e-01 4.183450000000000224e-01 8.922740000000000116e-01 8.546019999999999728e-01 -6.335169999999999968e-01 -2.239609999999999934e-01 -9.336899999999999367e-02 -1.096100000000000074e+00 5.769910000000000316e-01 -1.233899999999999927e-02 1.311609999999999998e-01 8.104600000000000692e-02 3.225640000000000174e-01 6.391010000000000302e-01 3.867769999999999819e-01 -8.288999999999999493e-03 -1.484870000000000079e-01 1.208499999999999991e-01 2.433120000000000005e-01 2.458220000000000127e-01 1.396699999999999886e-01 -4.647970000000000157e-01 5.017239999999999478e-01 -3.155899999999999678e-02 4.958099999999999730e-01 2.113800000000000054e-02 -1.007074000000000025e+00 -6.309890000000000221e-01 5.311599999999999655e-02 2.205719999999999903e-01 4.796750000000000180e-01 4.021310000000000162e-01 -3.221999999999999864e-02 -1.270699999999999885e-01 -3.804899999999999949e-01 5.377830000000000110e-01 1.868410000000000071e-01 1.221679999999999988e-01 -4.825490000000000057e-01 1.247930000000000011e-01 -4.299330000000000096e-01 -1.799020000000000064e-01 3.321149999999999936e-01 -9.956399999999999972e-02 -5.430599999999999872e-01 -8.046320000000000139e-01 -2.719079999999999830e-01 -3.032000000000000250e-01 3.264489999999999892e-01 1.055600000000000011e-01 -2.965450000000000030e-01 -2.437860000000000027e-01 4.214229999999999920e-01 -2.105699999999999933e-02 -2.524660000000000237e-01 -9.486500000000000488e-02 2.181140000000000023e-01 -7.238200000000000189e-02
-1.660299999999999970e-02 -3.463600000000000012e-02 3.796700000000000075e-02 -2.464999999999999830e-02 -6.599399999999999711e-02 4.111100000000000171e-02 -2.114299999999999860e-02 7.387999999999999602e-03 4.870900000000000230e-02 6.443200000000000316e-02 2.757300000000000029e-02 2.273499999999999827e-02 2.100000000000000130e-02 -1.005000000000000034e-03 -8.637999999999999845e-02 2.883099999999999899e-02 1.461999999999999932e-02 -4.808300000000000074e-02 -2.026400000000000076e-02 -3.939999999999999752e-02 -1.824880000000000113e-01 8.751999999999999363e-03 -8.921999999999999376e-03 -3.677899999999999919e-02 3.579800000000000343e-02 -3.634600000000000330e-02 -2.679499999999999937e-02 -7.314000000000000189e-03 3.281300000000000189e-02 -8.184999999999999568e-03 2.389000000000000064e-03 4.231200000000000239e-02 -5.210499999999999854e-02 -3.531100000000000211e-02 -1.000000000000000082e-05 -3.967099999999999793e-02 -7.948999999999999469e-03 4.723999999999999901e-03 -8.155000000000000790e-03 3.137299999999999811e-02 3.114199999999999954e-02 1.762000000000000025e-02 -3.277800000000000158e-02 1.045899999999999955e-02 -2.464200000000000071e-02 -2.709200000000000150e-02 2.030099999999999960e-02 -1.783900000000000069e-02 4.172000000000000361e-03 2.670000000000000064e-03 9.097700000000000231e-02 5.879999999999999810e-04 -2.455000000000000151e-03 5.466399999999999731e-02 -3.939999999999999926e-03 1.809999999999999977e-03 1.715889999999999915e-01 -2.930000000000000204e-04 -7.041999999999999649e-03 4.574799999999999700e-02
2.574250000000000149e-01 6.239800000000000207e-02 3.103620000000000267e-01 -2.812799999999999745e-01 -1.234299999999999981e-01 -3.912780000000000147e-01 4.569599999999999773e-01 -3.699700000000000211e-02 3.592940000000000023e-01 4.602100000000000080e-01 -6.277599999999999847e-02 3.278769999999999740e-01 9.952500000000000235e-02 -3.166880000000000250e-01 4.143749999999999933e-01 -1.645841000000000109e+00 1.382568999999999937e+00 -1.290283000000000069e+00 7.557949999999999946e-01 3.672399999999999970e-02 6.673630000000000395e-01 -4.531700000000000311e-02 4.415069999999999828e-01 8.978999999999999135e-03 -4.176570000000000005e-01 -1.961950000000000083e-01 -2.159770000000000023e-01 -6.187399999999999844e-02 6.186679999999999957e-01 -3.129839999999999844e-01 -1.414710000000000134e-01 -3.097119999999999873e-01 7.500800000000000523e-02 -6.266209999999999836e-01 -1.339160000000000073e-01 -3.963559999999999861e-01 -4.571900000000000269e-02 3.551399999999999696e-02 -6.166509999999999492e-01 -2.323860000000000092e-01 3.524200000000000249e-02 6.967250000000000387e-01 6.535959999999999548e-01 -7.046299999999999786e-01 9.377699999999999925e-02 1.844739999999999991e-01 6.461189999999999989e-01 2.185149999999999870e-01 1.042804999999999982e+00 -1.589485999999999954e+00 1.353760999999999992e+00 2.266900000000000165e-02 5.802890000000000548e-01 -8.300279999999999880e-01 -3.150160000000000182e-01 3.529800000000000298e-02 -8.491680000000000339e-01 -1.202759999999999940e-01 -4.004969999999999919e-01 3.766900000000000248e-01
2.146314999999999973e+00 6.348789999999999711e-01 2.816310000000000202e-01 2.210789999999999977e-01 6.784590000000000343e-01 -5.890670000000000073e-01 -5.746719999999999606e-01 -2.858829999999999982e-01 -3.745910000000000073e-01 -6.880880000000000329e-01 -2.134840000000000071e-01 -4.663080000000000003e-01 -3.303519999999999790e-01 2.180090000000000083e-01 4.985200000000000048e-02 5.183879999999999599e-01 -4.654059999999999864e-01 4.571020000000000083e-01 1.633139999999999870e-01 2.078089999999999937e-01 9.712910000000000155e-01 -9.885700000000000043e-02 8.074399999999999633e-02 4.945379999999999776e-01 -9.921790000000000331e-01 -1.196514000000000078e+00 -4.492189999999999794e-01 -1.066300000000000060e-02 2.597670000000000257e-01 7.093319999999999625e-01 -6.317810000000000370e-01 4.449100000000000277e-02 1.011265999999999998e+00 7.009200000000000153e-02 -1.487390000000000101e-01 -9.083000000000000795e-03 -3.490900000000000114e-01 1.525249999999999939e-01 -2.085349999999999981e-01 -2.115779999999999883e-01 2.799189999999999734e-01 -6.919049999999999923e-01 9.021040000000000170e-01 2.752709999999999879e-01 -5.347520000000000051e-01 2.979269999999999974e-01 -1.188030000000000058e-01 -1.232479999999999964e-01 -3.571610000000000062e-01 -8.235900000000000443e-01 -1.265959999999999863e-01 -7.643099999999999894e-02 4.259720000000000173e-01 -4.439119999999999733e-01 1.399680000000000091e-01 -5.800170000000000048e-01 7.015299999999999314e-02 -1.383330000000000115e-01 5.745879999999999876e-01 -2.794699999999999962e-02
-1.277560000000000084e-01 5.925169999999999604e-01 -8.039439999999999920e-01 7.673499999999999766e-02 -3.978800000000000114e-01 -3.973169999999999757e-01 -3.572629999999999972e-01 -8.595899999999999375e-02 1.386590000000000045e-01 -6.798530000000000406e-01 -7.927689999999999459e-01 -2.007950000000000013e-01 -4.318489999999999829e-01 -5.511080000000000423e-01 6.524229999999999752e-01 1.006599999999999995e-01 8.056000000000000660e-02 -5.515599999999999670e-02 -3.109489999999999754e-01 -4.419980000000000020e-01 2.485000000000000056e-02 -7.209449999999999470e-01 -1.314003000000000032e+00 2.097900000000000112e-02 3.245239999999999791e-01 1.122810000000000058e-01 7.355999999999999692e-03 1.133400000000000032e-02 1.489200000000000072e-02 1.676249999999999962e-01 3.452520000000000033e-01 3.538209999999999966e-01 -1.388250000000000040e-01 4.491800000000000237e-01 3.141599999999999948e-02 7.457420000000000160e-01 -4.011499999999999788e-02 3.919210000000000194e-01 -2.342500000000000138e-02 2.839659999999999962e-01 1.227800000000000072e-02 7.427699999999999581e-02 -1.412490000000000134e-01 -1.704789999999999917e-01 4.217659999999999743e-01 2.412199999999999900e-01 3.242309999999999914e-01 8.075300000000000533e-02 1.692199999999999954e-02 1.296500999999999904e+00 -1.634200000000000097e-01 3.343840000000000146e-01 5.168859999999999566e-01 -1.833849999999999925e-01 4.124650000000000261e-01 -9.072339999999999849e-01 6.261999999999999511e-02 2.133379999999999999e-01 9.341260000000000119e-01 -4.307819999999999983e-01
5.420400000000000218e-02 4.640000000000000027e-04 2.523699999999999902e-02 1.786000000000000087e-02 -1.516900000000000019e-02 3.451800000000000007e-02 -2.385699999999999973e-02 -3.331000000000000193e-03 4.105799999999999728e-02 -3.135500000000000093e-02 2.104699999999999974e-02 4.631799999999999806e-02 -1.047900000000000047e-02 7.438000000000000167e-03 -1.209469999999999990e-01 -5.415999999999999807e-03 -3.182200000000000306e-02 -1.485599999999999941e-02 3.723999999999999880e-03 -2.706000000000000072e-03 -7.056700000000000472e-02 -7.381000000000000408e-03 1.520000000000000084e-03 -1.133400000000000032e-02 -2.458999999999999814e-03 -3.454299999999999732e-02 -4.913399999999999712e-02 2.788399999999999906e-02 -2.370200000000000085e-02 -3.954300000000000176e-02 -2.506699999999999900e-02 3.113300000000000095e-02 -1.567699999999999996e-02 -1.600400000000000086e-02 -5.020000000000000157e-03 -1.101199999999999922e-02 7.720000000000000083e-04 1.229599999999999964e-02 -1.215199999999999961e-02 -7.813999999999999765e-03 2.454900000000000138e-02 -2.737699999999999856e-02 1.840699999999999975e-02 1.992700000000000027e-02 -1.063300000000000009e-02 9.681999999999999634e-03 8.279999999999999600e-04 -1.075599999999999994e-02 7.739999999999999485e-04 -5.140000000000000254e-04 1.216359999999999941e-01 4.004999999999999880e-03 -5.099999999999999960e-05 2.618399999999999894e-02 -2.596999999999999916e-03 -7.900000000000000121e-04 8.494699999999999473e-02 -4.884000000000000320e-03 -1.557000000000000007e-03 1.409000000000000009e-02
-1.710730000000000028e-01 1.604619999999999935e-01 8.603500000000000036e-02 2.229599999999999915e-01 6.925499999999999712e-02 5.778729999999999700e-01 -2.750020000000000242e-01 -9.577900000000000302e-02 1.676350000000000062e-01 1.743600000000000011e-02 1.465490000000000126e-01 3.911200000000000093e-02 -5.990000000000000316e-04 1.457360000000000044e-01 5.424400000000000055e-02 -2.468519999999999881e-01 -2.177499999999999922e-02 -4.209359999999999769e-01 -1.137360000000000038e-01 3.518370000000000108e-01 -5.557419999999999582e-01 3.226029999999999731e-01 3.642059999999999742e-01 -1.474840000000000040e-01 2.148249999999999882e-01 -1.433599999999999874e-01 4.341169999999999751e-01 7.180699999999999583e-02 -9.164899999999999436e-02 2.177489999999999981e-01 3.282880000000000242e-01 4.426900000000000279e-02 -2.605230000000000046e-01 1.724099999999999938e-02 -5.688900000000000207e-02 2.080470000000000097e-01 -3.277140000000000053e-01 -2.924900000000000069e-02 -4.640799999999999786e-02 -6.112100000000000172e-02 -2.714509999999999978e-01 -1.373000000000000088e-03 1.781770000000000020e-01 1.567699999999999927e-01 3.833849999999999758e-01 2.047300000000000161e-02 -2.218340000000000034e-01 -2.322999999999999978e-03 1.367190000000000072e-01 -3.389150000000000218e-01 -3.979400000000000298e-02 -6.954860000000000486e-01 3.813799999999999968e-01 -4.258560000000000123e-01 -1.704219999999999902e-01 7.144399999999999362e-02 -3.418129999999999780e-01 5.314759999999999485e-01 -6.210059999999999469e-01 7.405499999999999583e-02
-3.698440000000000061e-01 3.286510000000000264e-01 6.307200000000000306e-02 5.743129999999999624e-01 1.168099999999999972e-01 -4.114410000000000012e-01 -5.481489999999999974e-01 2.316499999999999948e-01 -5.560049999999999715e-01 -1.824870000000000103e-01 6.489650000000000141e-01 -1.595142999999999978e+00 3.173108000000000040e+00 -3.572966999999999782e+00 -1.644077999999999928e+00 -2.033580000000000110e-01 -2.679700000000000137e-02 2.482159999999999922e-01 -2.456240000000000090e-01 1.610719999999999930e-01 1.793230000000000102e-01 -2.481089999999999962e-01 3.443979999999999819e-01 3.025410000000000044e-01 7.026019999999999488e-01 -5.588180000000000369e-01 5.229160000000000474e-01 -3.963000000000000377e-03 -3.796599999999999975e-01 3.000809999999999866e-01 4.131599999999999856e-02 2.196190000000000087e-01 7.787099999999999578e-02 -3.091899999999999857e-02 -3.242849999999999899e-01 3.078029999999999933e-01 2.549999999999999836e-02 -2.571129999999999804e-01 1.195210000000000022e-01 -9.195999999999999314e-03 -8.006800000000000028e-02 -3.004830000000000001e-01 4.302739999999999898e-01 2.478680000000000050e-01 1.236329000000000011e+00 -7.340000000000000691e-02 -3.107559999999999767e-01 3.523890000000000078e-01 -7.700400000000000300e-02 4.183100000000000013e-02 -7.680109999999999992e-01 -1.804445000000000077e+00 3.541888999999999843e+00 1.472917999999999950e+00 -9.019409999999999927e-01 -2.775059999999999749e-01 3.107809999999999739e-01 -2.486740000000000061e-01 -9.478699999999999626e-02 -2.186009999999999898e-01