4.039613235000000024e+00 0.000000000000000000e+00 0.000000000000000000e+00 1.405751239999999957e-01 7.311685788000000130e+00 0.000000000000000000e+00 2.054254490000000100e-01 -4.341703820000000213e-01 2.906014642599999931e+01
4.134171474999999596e+00 0.000000000000000000e+00 0.000000000000000000e+00 1.695268080000000011e-01 7.233826922999999631e+00 0.000000000000000000e+00 1.282362922999999988e+00 1.602284197999999993e+00 3.175621208700000153e+01
4.196454259000000242e+00 0.000000000000000000e+00 0.000000000000000000e+00 2.373632330000000068e-01 7.255886279000000272e+00 0.000000000000000000e+00 1.217562545000000052e+00 -8.589459769999999716e-01 4.599033594299999805e+01
4.205511923999999624e+00 0.000000000000000000e+00 0.000000000000000000e+00 -4.758944700000000000e-02 7.462372665000000183e+00 0.000000000000000000e+00 1.722261958000000037e+00 -4.593418539999999939e-01 2.976584806299999997e+01
4.106088029000000361e+00 0.000000000000000000e+00 0.000000000000000000e+00 3.164366700000000032e-02 7.095736865000000115e+00 0.000000000000000000e+00 5.457048300000000296e-02 -1.663720174999999912e+00 4.529097684500000298e+01
4.283448231000000384e+00 0.000000000000000000e+00 0.000000000000000000e+00 -2.250041939999999907e-01 7.214015640999999590e+00 0.000000000000000000e+00 -2.780347340000000056e-01 4.047757438999999735e+00 3.039686542300000127e+01
4.116902686999999617e+00 0.000000000000000000e+00 0.000000000000000000e+00 1.480519329999999967e-01 7.172718732999999958e+00 0.000000000000000000e+00 3.453470710000000055e-01 -2.562289250000000074e+00 3.176511386700000017e+01
4.246987105999999734e+00 0.000000000000000000e+00 0.000000000000000000e+00 -8.097053699999999521e-02 7.198209281999999654e+00 0.000000000000000000e+00 -1.657616801000000084e+00 -1.457582251000000051e+00 2.881297789699999967e+01
4.183104825000000027e+00 0.000000000000000000e+00 0.000000000000000000e+00 -1.593039390000000055e-01 7.198850226000000241e+00 0.000000000000000000e+00 -6.925782940000000387e-01 -1.771900658999999933e+00 3.386555589400000343e+01
4.077365266000000155e+00 0.000000000000000000e+00 0.000000000000000000e+00 1.574132719999999930e-01 7.168709222999999575e+00 0.000000000000000000e+00 1.955026860999999894e+00 1.604139103000000066e+00 3.184231664700000053e+01
4.171737355000000314e+00 0.000000000000000000e+00 0.000000000000000000e+00 1.511213640000000080e-01 7.463674036999999650e+00 0.000000000000000000e+00 -4.645819959999999971e-01 -8.872543900000000316e-02 3.017736718400000129e+01
4.170161979999999602e+00 0.000000000000000000e+00 0.000000000000000000e+00 5.821137299999999681e-02 7.259245059999999583e+00 0.000000000000000000e+00 -2.357345769999999785e+00 -1.629381199000000002e+00 2.949148002400000124e+01
4.041225804999999838e+00 0.000000000000000000e+00 0.000000000000000000e+00 -6.087245100000000103e-02 7.270983316999999779e+00 0.000000000000000000e+00 2.000433376999999791e+00 -4.403893600000000075e-02 3.205233108299999856e+01
4.143803784000000157e+00 0.000000000000000000e+00 0.000000000000000000e+00 -4.661060200000000098e-02 7.129993937000000059e+00 0.000000000000000000e+00 -1.430340759999999989e+00 -1.281904936999999967e+00 3.219027914200000140e+01
4.187220389000000154e+00 0.000000000000000000e+00 0.000000000000000000e+00 -2.058346999999999954e-02 7.175096341999999794e+00 0.000000000000000000e+00 -9.472683870000000450e-01 7.177437749999999728e-01 3.060634271200000001e+01
4.113936779000000321e+00 0.000000000000000000e+00 0.000000000000000000e+00 3.606405699999999659e-02 7.122605892000000161e+00 0.000000000000000000e+00 -4.694022889999999726e-01 -3.285385815999999792e+00 3.166195806600000040e+01
4.099297896000000385e+00 0.000000000000000000e+00 0.000000000000000000e+00 4.025423799999999774e-02 7.246073328999999674e+00 0.000000000000000000e+00 1.369676997000000007e+00 -7.094577400000000311e-02 3.308288084899999859e+01
4.066608099999999837e+00 0.000000000000000000e+00 0.000000000000000000e+00 2.030272359999999998e-01 7.280078950000000049e+00 0.000000000000000000e+00 3.931103679999999878e-01 1.323489731000000003e+00 3.318841897699999777e+01
4.091228580000000115e+00 0.000000000000000000e+00 0.000000000000000000e+00 7.578064199999999528e-02 7.167928460999999807e+00 0.000000000000000000e+00 -1.315259616000000076e+00 -2.501630329000000152e+00 3.112111286400000054e+01
4.198830436999999804e+00 0.000000000000000000e+00 0.000000000000000000e+00 -1.696228600000000003e-02 7.143062876000000117e+00 0.000000000000000000e+00 2.237693598999999978e+00 -1.737220363000000045e+00 3.142925048000000032e+01
4.124417000000000222e+00 0.000000000000000000e+00 0.000000000000000000e+00 -1.116221899999999927e-02 7.062518459999999720e+00 0.000000000000000000e+00 -1.926477095999999944e+00 -5.056132949999999626e-01 3.145416214200000127e+01
4.068107911000000243e+00 0.000000000000000000e+00 0.000000000000000000e+00 -1.723497029999999930e-01 7.372791526000000317e+00 0.000000000000000000e+00 3.445183000000000273e-02 3.342841727000000152e+00 2.964122314200000119e+01
4.254978762000000359e+00 0.000000000000000000e+00 0.000000000000000000e+00 -2.210379680000000013e-01 7.215964462999999718e+00 0.000000000000000000e+00 -6.840012650000000249e-01 3.861849109000000002e+00 3.048399306800000019e+01
4.147445549999999592e+00 0.000000000000000000e+00 0.000000000000000000e+00 -1.016260670000000005e-01 7.336458999000000425e+00 0.000000000000000000e+00 -4.380876850000000045e-01 -1.347695684000000060e+00 3.068624314599999892e+01
4.182121497999999882e+00 0.000000000000000000e+00 0.000000000000000000e+00 -3.013107300000000266e-01 7.274753956999999716e+00 0.000000000000000000e+00 6.976404859999999486e-01 -2.279034355999999928e+00 3.256961103999999807e+01
4.130675583000000373e+00 0.000000000000000000e+00 0.000000000000000000e+00 1.852600819999999926e-01 7.265764412000000227e+00 0.000000000000000000e+00 -9.889675049999999690e-01 -1.029032605999999905e+00 3.113954450399999985e+01
4.129482395000000139e+00 0.000000000000000000e+00 0.000000000000000000e+00 5.984940300000000241e-02 7.221975150999999649e+00 0.000000000000000000e+00 5.175019770000000019e-01 -2.604026364000000093e+00 3.541372980599999920e+01
4.112644271999999823e+00 0.000000000000000000e+00 0.000000000000000000e+00 2.032347989999999938e-01 7.144567493000000269e+00 0.000000000000000000e+00 1.218994128000000066e+00 1.277740311999999934e+00 3.101245858700000113e+01
4.139773518000000152e+00 0.000000000000000000e+00 0.000000000000000000e+00 -1.568869509999999967e-01 7.062602198999999636e+00 0.000000000000000000e+00 3.794500100000000042e-01 -1.979125599999999929e+00 3.140946295699999880e+01
4.087591291999999932e+00 0.000000000000000000e+00 0.000000000000000000e+00 -1.279181269999999926e-01 7.113498505999999999e+00 0.000000000000000000e+00 2.000400509999999965e-01 -1.739502872999999949e+00 3.116186108000000132e+01
4.307777333999999847e+00 0.000000000000000000e+00 0.000000000000000000e+00 5.665505900000000067e-02 7.173248521999999738e+00 0.000000000000000000e+00 8.284586250000000041e-01 -8.055912469999999548e-01 3.158894743200000121e+01
4.068062195000000436e+00 0.000000000000000000e+00 0.000000000000000000e+00 -2.737875690000000084e-01 7.285308360000000150e+00 0.000000000000000000e+00 1.467039693999999894e+00 3.355454326999999903e+00 3.246989228999999710e+01
4.141593098999999611e+00 0.000000000000000000e+00 0.000000000000000000e+00 1.442767159999999993e-01 7.287715406000000229e+00 0.000000000000000000e+00 5.049745159999999844e-01 1.585965445999999890e+00 2.976949625900000029e+01
4.111394828999999973e+00 0.000000000000000000e+00 0.000000000000000000e+00 9.469907700000000650e-02 7.259607210000000421e+00 0.000000000000000000e+00 -1.358090505000000059e+00 -2.162645465000000211e+00 3.126729041000000109e+01
4.111819851999999997e+00 0.000000000000000000e+00 0.000000000000000000e+00 8.291847300000000642e-02 7.425585251000000220e+00 0.000000000000000000e+00 -1.436228472999999894e+00 8.976169339999999774e-01 2.984618710399999841e+01
4.212958639000000005e+00 0.000000000000000000e+00 0.000000000000000000e+00 7.374269399999999752e-02 7.176059495999999704e+00 0.000000000000000000e+00 2.845479199999999959e-02 -1.445931419000000107e+00 3.101196991600000175e+01
4.133093717000000389e+00 0.000000000000000000e+00 0.000000000000000000e+00 -5.428763400000000128e-02 7.366203924999999764e+00 0.000000000000000000e+00 1.376687597999999957e+00 -1.626368059999999893e+00 3.352206118099999799e+01
4.127903078000000114e+00 0.000000000000000000e+00 0.000000000000000000e+00 -3.598313399999999995e-02 7.190067080000000388e+00 0.000000000000000000e+00 9.965041430000000089e-01 -9.990754910000000377e-01 2.915914789099999993e+01
4.284379634999999631e+00 0.000000000000000000e+00 0.000000000000000000e+00 9.355464400000000624e-02 7.175123629999999864e+00 0.000000000000000000e+00 2.588176070000000051e-01 -2.945757450000000000e-01 3.172281032100000076e+01
4.061641155000000225e+00 0.000000000000000000e+00 0.000000000000000000e+00 2.411811070000000057e-01 7.376026457000000036e+00 0.000000000000000000e+00 1.653441643999999933e+00 -2.306584814999999899e+00 3.152422454899999948e+01
4.108801904999999977e+00 0.000000000000000000e+00 0.000000000000000000e+00 9.662681300000000584e-02 7.326216417000000369e+00 0.000000000000000000e+00 -1.508873606999999950e+00 7.191385630000000084e-01 3.346598892600000141e+01
4.125810738000000200e+00 0.000000000000000000e+00 0.000000000000000000e+00 1.855810669999999885e-01 7.460061198000000005e+00 0.000000000000000000e+00 2.132476404999999797e+00 9.402859980000000117e-01 3.061164809099999928e+01
4.293140039999999935e+00 0.000000000000000000e+00 0.000000000000000000e+00 3.585815099999999783e-02 7.195884974000000156e+00 0.000000000000000000e+00 1.139917808000000088e+00 -1.237062133000000008e+00 3.182250888100000097e+01
4.057127365999999569e+00 0.000000000000000000e+00 0.000000000000000000e+00 -1.652966539999999873e-01 7.287790783000000161e+00 0.000000000000000000e+00 -6.733361089999999605e-01 -6.283588900000000588e-02 3.706213302399999776e+01
4.133359113000000029e+00 0.000000000000000000e+00 0.000000000000000000e+00 -1.403545880000000023e-01 7.279001295999999677e+00 0.000000000000000000e+00 2.421533070000000121e-01 -1.213774509999999973e-01 3.296711891900000069e+01
4.178621887000000257e+00 0.000000000000000000e+00 0.000000000000000000e+00 -7.318616000000000010e-03 7.097768506999999616e+00 0.000000000000000000e+00 1.536832192000000097e+00 -7.748942220000000214e-01 3.156722746799999868e+01
4.111405866000000131e+00 0.000000000000000000e+00 0.000000000000000000e+00 9.069512999999999880e-02 7.155498606000000095e+00 0.000000000000000000e+00 1.862626700999999940e+00 -1.114245909000000090e+00 3.156383938100000108e+01
4.161049904000000410e+00 0.000000000000000000e+00 0.000000000000000000e+00 -1.565212300000000112e-01 7.278538928999999769e+00 0.000000000000000000e+00 -3.339770550000000227e-01 -1.607767149999999867e-01 3.311768662099999716e+01
4.161781761000000301e+00 0.000000000000000000e+00 0.000000000000000000e+00 -5.651062899999999972e-02 7.219043377000000206e+00 0.000000000000000000e+00 2.282269537999999987e+00 -2.514965039999999874e+00 3.078614342399999870e+01
4.181015046999999818e+00 0.000000000000000000e+00 0.000000000000000000e+00 -7.458837999999999753e-03 7.178420241000000424e+00 0.000000000000000000e+00 2.402376181999999805e+00 -1.025292671999999961e+00 3.203057483799999972e+01
