-3.472299999999999692e-02 1.093800000000000050e-01 -1.130211000000000077e+00 -8.022999999999999576e-02 3.228550000000000031e-01 3.359929999999999861e-01 -3.636480000000000268e-01 7.836629999999999985e-01 8.194850000000000190e-01 -8.476040000000000241e-01 -1.217300000000000049e-01 3.087050000000000072e-01 1.694700000000000026e-02 -6.996470000000000189e-01 -3.475530000000000008e-01 -2.740659999999999763e-01 -7.116200000000000303e-02 -3.958209999999999784e-01 7.006069999999999798e-01 -3.411179999999999768e-01 -4.171090000000000075e-01 2.135400000000000076e-01 -7.925250000000000350e-01 -5.394919999999999716e-01 -6.516299999999999870e-02 5.699699999999999905e-02 -2.427100000000000091e-02 -1.997839999999999894e-01 -1.497149999999999870e-01 1.551603999999999983e+00 -1.565100000000000172e-02 5.380970000000000475e-01 1.437599999999999989e-01 -2.417829999999999979e-01 -4.074320000000000164e-01 2.403899999999999926e-01 1.461399999999999921e-01 -1.213449999999999945e-01 5.746130000000000404e-01 -5.316799999999999998e-02 -4.043499999999999872e-02 -2.937910000000000244e-01 6.212459999999999649e-01 -6.630199999999999982e-02 -3.389670000000000183e-01 7.546150000000000357e-01 -3.815529999999999755e-01 -7.988760000000000305e-01 -5.486000000000000425e-03 -5.191480000000000539e-01 1.144846000000000030e+00 -2.261630000000000029e-01 -2.878769999999999940e-01 4.022020000000000040e-01 -7.891600000000000004e-02 -4.431899999999999729e-02 2.095220000000000138e-01 -1.081160000000000038e-01 1.069930000000000048e-01 6.916060000000000541e-01 -4.389270000000000116e-01 1.975030000000000119e-01 -3.962870000000000004e-01 -6.902300000000000102e-02 8.097609999999999530e-01 2.316259999999999986e-01 1.231270000000000003e-01 4.711910000000000265e-01 1.154609999999999942e-01 2.068419999999999981e-01 8.205900000000000694e-02 -2.326989999999999892e-01 9.779999999999999805e-02 -1.466939999999999911e-01 1.554550000000000098e-01 -2.399000000000000091e-02 4.161560000000000259e-01 -1.056648999999999949e+00 3.721280000000000143e-01 2.826270000000000171e-01 -7.206839999999999913e-01 1.664490000000000136e-01 -7.212699999999999667e-02 -4.610879999999999979e-01 -2.597990000000000022e-01 -3.424030000000000129e-01 1.492690000000000128e-01 -3.319799999999999834e-02 4.282489999999999908e-01 7.896300000000000541e-02
-1.106878999999999946e+00 -8.222960000000000269e-01 -8.549350000000000005e-01 2.218410000000000104e-01 1.721395000000000008e+00 -1.313209000000000071e+00 4.941119999999999957e-01 -3.609300000000000008e-02 3.704839999999999800e-01 8.483000000000000262e-02 1.979630000000000001e-01 -3.439099999999999935e-01 1.031770000000000048e-01 1.148320000000000035e-01 -3.593060000000000143e-01 -2.148909999999999987e-01 6.948300000000000309e-02 1.151399999999999993e-02 2.284970000000000057e-01 -7.685469999999999802e-01 -7.706499999999999462e-02 -1.398089999999999888e-01 4.120999999999999663e-02 7.865240000000000009e-01 1.612159999999999982e-01 2.119422000000000139e+00 -1.196760999999999964e+00 -9.969500000000000584e-02 4.713689999999999825e-01 3.489499999999999824e-01 2.373689999999999967e-01 1.391449999999999909e-01 -9.005100000000000326e-01 2.954510000000000192e-01 1.478400000000000027e-02 -1.079444999999999988e+00 1.528831999999999969e+00 -1.099555000000000060e+00 1.814173000000000036e+00 -3.123730000000000118e-01 1.076539999999999997e-01 -5.964040000000000452e-01 -3.098700000000000065e-02 -4.687000000000000194e-02 3.771079999999999988e-01 -6.609920000000000240e-01 -7.859299999999999620e-02 -4.860600000000000337e-02 1.994500000000000092e-02 -1.607200000000000017e-01 1.348016000000000103e+00 -3.887430000000000052e-01 4.918660000000000254e-01 3.258050000000000113e-01 -7.571899999999999464e-02 -8.439099999999999380e-02 1.383599999999999934e-02 -1.765909999999999980e-01 1.467459999999999876e-01 -1.933870000000000033e-01 -2.450970000000000093e-01 4.980410000000000115e-01 -2.850409999999999888e-01 1.480910000000000004e-01 3.554680000000000062e-01 -1.785829999999999917e-01 2.910700000000000093e-02 -2.270000000000000073e-01 2.125599999999999989e-01 3.538939999999999864e-01 -1.046360000000000068e-01 1.005999999999999950e-01 -1.413480000000000014e-01 -4.889729999999999910e-01 -1.234269999999999951e-01 2.966880000000000073e-01 -2.193264999999999798e+00 7.403629999999999933e-01 -2.158029999999999948e-01 -3.449090000000000211e-01 5.306250000000000133e-01 -2.596600000000000019e-01 -6.457300000000000539e-02 6.687939999999999996e-01 1.771340000000000137e-01 2.025649999999999951e-01 -3.957300000000000262e-01 -3.115999999999999881e-01 -1.715230000000000088e-01 2.969680000000000097e-01
5.023600000000000287e-02 5.636600000000000499e-01 -8.641200000000000270e-02 -2.999049999999999772e-01 -9.632999999999999202e-03 6.349100000000000577e-02 1.492860000000000020e-01 -4.752480000000000038e-01 8.139150000000000551e-01 -1.444969999999999866e-01 -1.794719999999999926e-01 -3.192820000000000102e-01 3.980259999999999909e-01 -2.877689999999999970e-01 -2.597829999999999862e-01 -8.342319999999999736e-01 7.967130000000000045e-01 9.988829999999999654e-01 -3.502589999999999870e-01 -2.024100000000000066e-01 -1.062098999999999904e+00 3.317099999999999910e-02 5.940299999999999470e-01 -9.972010000000000041e-01 4.509520000000000195e-01 -2.018040000000000112e-01 -7.271389999999999798e-01 1.226779999999999954e-01 4.805280000000000107e-01 -7.680679999999999730e-01 2.485390000000000099e-01 5.301240000000000396e-01 -5.187979999999999814e-01 -2.355839999999999879e-01 -3.439220000000000055e-01 1.397730000000000083e-01 2.291719999999999868e-01 -8.451340000000000519e-01 1.935330000000000106e-01 -3.077110000000000123e-01 1.751399999999999901e-01 2.375120000000000009e-01 -3.276919999999999833e-01 2.235920000000000130e-01 4.628180000000000072e-01 1.109659999999999952e-01 -9.159000000000000474e-03 -5.565059999999999452e-01 5.089099999999999874e-02 -4.167210000000000081e-01 -4.765909999999999869e-01 -1.934500000000000108e-01 6.609850000000000447e-01 -7.775039999999999729e-01 3.765000000000000291e-02 -3.736670000000000269e-01 -1.007679999999999965e-01 -3.142909999999999870e-01 -2.047930000000000028e-01 -8.448000000000000648e-03 5.922290000000000054e-01 -2.043260000000000076e-01 4.667709999999999915e-01 -1.973209999999999964e-01 -5.110599999999999588e-01 4.872300000000000242e-02 1.803079999999999961e-01 9.959989999999999677e-01 1.969229999999999869e-01 7.714990000000000459e-01 -4.853180000000000271e-01 -1.266769999999999952e+00 -7.893149999999999888e-01 -8.311500000000000554e-01 8.534819999999999629e-01 -5.785799999999999971e-02 4.512519999999999865e-01 2.880280000000000062e-01 -1.334869999999999945e-01 -3.299190000000000178e-01 1.292777999999999983e+00 5.849520000000000275e-01 1.648200000000000012e-02 -7.713200000000000611e-02 6.347999999999999476e-02 -2.707910000000000039e-01 9.238979999999999970e-01 1.115669999999999995e-01 6.937900000000000178e-01 1.021970999999999963e+00
1.357410000000000005e-01 5.636729999999999796e-01 -2.758390000000000009e-01 -6.992600000000000204e-02 -9.274799999999999711e-02 5.587400000000000005e-02 -3.274480000000000168e-01 -4.492099999999999982e-01 5.298239999999999617e-01 1.220040000000000013e-01 1.124300000000000022e-01 3.877619999999999956e-01 8.734760000000000302e-01 -1.188229999999999981e-01 -3.786089999999999733e-01 2.055919999999999970e-01 -2.851400000000000046e-01 1.256529999999999869e-01 1.566440000000000055e-01 1.710639999999999938e-01 -4.882920000000000038e-01 6.743100000000000482e-02 -7.873219999999999663e-01 1.654349999999999987e-01 6.009100000000000552e-01 1.684199999999999864e-01 -5.894179999999999975e-01 2.874149999999999761e-01 1.965700000000000086e-02 -9.332059999999999800e-01 -4.177400000000000002e-01 -3.833590000000000053e-01 3.766140000000000043e-01 1.554599999999999871e-01 -5.882199999999999929e-02 -1.833430000000000060e-01 1.148379999999999956e-01 -3.110100000000000017e-02 3.475139999999999896e-01 -4.567600000000000132e-02 5.437399999999999872e-02 -6.675000000000000377e-03 9.747500000000000608e-02 -3.362799999999999817e-02 -4.582229999999999914e-01 5.235659999999999759e-01 1.992579999999999907e-01 -3.480230000000000268e-01 -3.064950000000000174e-01 -1.874520000000000075e-01 -3.695260000000000211e-01 1.937480000000000036e-01 -1.758499999999999994e-02 2.574110000000000009e-01 -7.148989999999999512e-01 -1.609540000000000137e-01 1.283539999999999959e-01 -5.784000000000000079e-03 -4.060199999999999920e-02 -6.820199999999999874e-02 8.194400000000000295e-02 3.933380000000000210e-01 -4.808199999999999974e-02 -3.968380000000000241e-01 1.003480000000000066e-01 5.658879999999999466e-01 -3.538749999999999951e-01 7.095900000000000540e-01 -3.958209999999999784e-01 -2.456669999999999965e-01 -1.256500000000000117e-01 1.697619999999999962e-01 -8.194519999999999582e-01 -3.686980000000000257e-01 8.902630000000000265e-01 2.051270000000000038e-01 6.324109999999999454e-01 -6.231799999999999840e-02 2.288219999999999976e-01 -1.458119999999999972e-01 -1.526559999999999861e-01 -5.426700000000000274e-02 5.735749999999999460e-01 4.667899999999999827e-02 -3.753909999999999747e-01 2.111590000000000134e-01 5.743960000000000177e-01 8.326600000000000668e-02 -6.223919999999999453e-01 1.368020000000000069e-01
-4.102140000000000231e-01 -1.908809999999999951e-01 -2.546999999999999785e-03 -7.989000000000000268e-02 -3.640070000000000250e-01 -2.385750000000000093e-01 7.209550000000000125e-01 1.313370000000000093e-01 8.464570000000000149e-01 1.686390000000000111e-01 1.232216999999999896e+00 -8.185099999999999598e-01 -4.371699999999999892e-02 8.002510000000000456e-01 -6.627849999999999575e-01 6.389380000000000059e-01 -9.439130000000000020e-01 -4.727169999999999983e-01 2.802800000000000083e-02 4.511589999999999767e-01 7.622339999999999671e-01 4.346880000000000188e-01 -1.670359999999999900e-01 9.024619999999999864e-01 7.324899999999999467e-02 -2.916369999999999796e-01 5.302010000000000334e-01 -1.684000000000000080e-02 -7.124869999999999814e-01 8.996779999999999777e-01 -5.588760000000000394e-01 4.497659999999999991e-01 4.295600000000000113e-02 3.150729999999999920e-01 2.190100000000000033e-02 1.729500000000000134e-02 6.651600000000000568e-02 1.839530000000000054e-01 1.780899999999999844e-02 2.495070000000000066e-01 2.398089999999999944e-01 1.360830000000000095e-01 -3.852970000000000006e-01 -2.471389999999999976e-01 9.229700000000000404e-02 -5.120839999999999836e-01 -6.010029999999999539e-01 -8.095860000000000278e-01 -2.760999999999999999e-03 -1.847479999999999956e-01 -1.876440000000000052e-01 -1.273999999999999959e-02 4.195969999999999978e-01 -1.955999999999999839e-03 -7.373300000000000409e-01 -2.088820000000000121e-01 4.360680000000000112e-01 3.683420000000000027e-01 -2.668999999999999845e-02 -4.351380000000000248e-01 2.157570000000000043e-01 5.032180000000000542e-01 -8.567669999999999453e-01 -4.297449999999999881e-01 -6.515940000000000065e-01 6.000170000000000226e-01 -2.108399999999999858e-02 4.327770000000000228e-01 6.713909999999999600e-01 -1.406280000000000030e-01 -5.563139999999999752e-01 1.052483999999999975e+00 -6.206620000000000470e-01 8.674500000000000266e-02 -8.022319999999999451e-01 4.407769999999999744e-01 -2.184600000000000083e-02 -3.013529999999999820e-01 7.907380000000000519e-01 -2.430180000000000118e-01 3.374099999999999877e-01 -3.623509999999999787e-01 -3.294639999999999791e-01 -1.191190000000000027e-01 -1.587300000000000100e-01 5.892920000000000380e-01 -6.027390000000000247e-01 -1.825699999999999892e-02 1.986380000000000090e-01 -1.033172999999999897e+00
1.611899999999999999e-01 -2.041389999999999871e-01 5.516159999999999952e-01 5.457000000000000045e-03 6.435340000000000504e-01 5.770769999999999511e-01 4.731400000000000189e-02 -6.367460000000000342e-01 4.990550000000000264e-01 -2.161579999999999890e-01 -4.620819999999999927e-01 6.723609999999999864e-01 -2.566669999999999785e-01 2.036580000000000057e-01 -7.310400000000000231e-02 3.911400000000000293e-02 -1.281619999999999981e-01 -8.456900000000000528e-02 2.990659999999999985e-01 -7.071049999999999836e-01 1.688580000000000081e-01 -2.123670000000000002e-01 2.836190000000000100e-01 -6.241389999999999993e-01 -2.449729999999999963e-01 -3.982800000000000229e-02 2.869760000000000089e-01 -1.955560000000000076e-01 1.995200000000000098e-02 -1.209960000000000063e-01 -3.155680000000000152e-01 3.145990000000000175e-01 7.428300000000000181e-02 -1.457990000000000119e-01 -7.523039999999999727e-01 2.680390000000000272e-01 -7.774450000000000527e-01 3.896120000000000139e-01 1.571450000000000069e-01 4.067700000000000204e-01 -7.043430000000000524e-01 -8.343540000000000401e-01 1.314440000000000053e-01 3.399530000000000052e-01 -4.940200000000000147e-01 2.915739999999999998e-01 6.143910000000000204e-01 -1.146810000000000052e-01 2.232669999999999932e-01 -5.297999999999999932e-02 -2.974399999999999822e-01 2.171800000000000119e-02 -4.841899999999999676e-02 -6.173159999999999759e-01 -1.013700000000000018e-02 1.606539999999999913e-01 2.370329999999999937e-01 2.261399999999999869e-02 1.826309999999999878e-01 1.935699999999999921e-02 1.209380000000000038e-01 2.969849999999999990e-01 -2.534350000000000214e-01 2.559919999999999973e-01 -7.154000000000000636e-02 6.629300000000000470e-02 6.464200000000000501e-02 2.276239999999999930e-01 -3.593439999999999968e-01 -5.492899999999999450e-01 -2.752979999999999872e-01 -1.668969999999999898e-01 8.548500000000000543e-02 -4.246079999999999854e-01 -8.093029999999999946e-01 6.965200000000000558e-02 8.359600000000000364e-02 1.226200000000000068e-01 5.923300000000000093e-02 1.678820000000000034e-01 -1.254180000000000017e-01 3.678489999999999815e-01 5.787500000000000283e-02 3.572110000000000007e-01 3.021300000000000027e-02 2.075879999999999947e-01 7.683870000000000422e-01 2.204290000000000138e-01 3.133989999999999831e-01 1.487060000000000048e-01
-2.213259999999999950e-01 5.903499999999999720e-02 -4.920530000000000181e-01 -4.326920000000000210e-01 -4.167830000000000146e-01 2.360990000000000033e-01 1.377730000000000066e-01 -1.293026000000000009e+00 6.392630000000000257e-01 4.625609999999999999e-01 -7.166200000000000347e-02 4.099849999999999883e-01 5.083210000000000228e-01 -1.247196999999999889e+00 7.559599999999999653e-02 9.963299999999999934e-02 1.066760000000000069e-01 -2.654030000000000000e-01 -6.068300000000000083e-02 -2.705799999999999872e-02 4.414499999999999674e-02 -2.426649999999999918e-01 1.422549999999999926e-01 -5.742880000000000207e-01 -7.520750000000000490e-01 -3.343389999999999973e-01 -9.473359999999999559e-01 -3.845720000000000249e-01 2.456510000000000082e-01 -6.793129999999999447e-01 4.013479999999999825e-01 -1.204390000000000044e-01 3.041249999999999787e-01 -7.923499999999999988e-02 6.351300000000000001e-02 2.457499999999999962e-02 2.886400000000000077e-01 2.393949999999999967e-01 -3.547339999999999938e-01 1.726999999999999924e-01 -3.894469999999999876e-01 -3.464500000000000218e-02 -1.896569999999999923e-01 1.816167000000000087e+00 -6.678790000000000004e-01 -3.346770000000000023e-01 -4.390890000000000071e-01 3.918369999999999909e-01 -3.248499999999999999e-02 7.557040000000000424e-01 -3.294440000000000146e-01 2.362740000000000118e-01 -7.483099999999999474e-02 4.102100000000000191e-02 -4.899439999999999906e-01 3.836640000000000050e-01 -1.876699999999999896e-02 -2.652499999999999997e-02 7.864759999999999529e-01 5.977639999999999620e-01 1.017850000000000005e-01 5.076900000000000163e-02 -1.270800000000000055e-02 -4.105400000000000021e-02 2.845019999999999771e-01 7.198050000000000281e-01 -3.136599999999999944e-01 -8.374700000000000200e-02 -6.367260000000000142e-01 3.760390000000000121e-01 -2.127709999999999879e-01 -3.950870000000000215e-01 8.534559999999999924e-01 2.584640000000000271e-01 1.062451999999999952e+00 3.793259999999999965e-01 -1.419809999999999961e-01 6.961310000000000553e-01 -3.555039999999999867e-01 -1.912379999999999913e-01 1.785049999999999970e-01 -6.677900000000000502e-02 7.723399999999999710e-02 2.514870000000000161e-01 -1.012269999999999975e-01 -3.357479999999999909e-01 -1.556819999999999871e-01 1.069029999999999980e-01 1.098470000000000002e-01 -1.087250000000000022e-01
-1.672299999999999898e-01 4.384939999999999949e-01 3.097300000000000053e-01 4.057499999999999996e-02 1.556389999999999996e-01 -4.423449999999999882e-01 6.937699999999999423e-02 3.217189999999999772e-01 -2.114179999999999948e-01 -5.226700000000000096e-02 -4.044130000000000225e-01 3.103399999999999909e-02 4.127899999999999903e-01 -2.277200000000000057e-02 -4.224849999999999994e-01 -5.763200000000000267e-02 -4.668260000000000187e-01 -1.028996000000000022e+00 -3.688899999999999818e-02 -2.977239999999999887e-01 5.516609999999999570e-01 -1.276859999999999939e-01 2.292190000000000061e-01 3.733929999999999749e-01 2.634239999999999915e-01 -5.678300000000000014e-02 8.487699999999999412e-02 -3.194400000000000017e-02 1.640979999999999939e-01 -4.181759999999999922e-01 -5.557600000000000040e-02 -3.920830000000000148e-01 -2.047799999999999968e-02 -3.434690000000000243e-01 2.225070000000000103e-01 -7.160500000000000198e-02 4.318799999999999722e-02 -1.661289999999999989e-01 -3.232959999999999723e-01 -2.953199999999999922e-02 8.973899999999999932e-02 7.011699999999999877e-02 5.039199999999999929e-02 2.365460000000000063e-01 4.114209999999999812e-01 -8.922099999999999476e-02 -1.475150000000000072e-01 2.984390000000000098e-01 3.262249999999999872e-01 -4.937099999999999822e-01 8.577200000000000102e-02 -6.461500000000000576e-02 4.279899999999999677e-02 1.707170000000000076e-01 -8.027299999999999713e-02 -2.554599999999999926e-02 3.106269999999999865e-01 -1.550539999999999974e-01 -4.829060000000000019e-01 1.210741999999999985e+00 3.993129999999999735e-01 -5.333399999999999946e-02 -2.055190000000000072e-01 -1.605189999999999950e-01 1.609059999999999935e-01 -4.396249999999999880e-01 -2.934780000000000166e-01 4.975580000000000003e-01 -3.993479999999999808e-01 5.516000000000000070e-02 3.238489999999999980e-01 1.518110000000000015e-01 1.846129999999999993e-01 3.825640000000000152e-01 7.997300000000000242e-02 -2.666120000000000156e-01 -1.340619999999999867e-01 -5.881800000000000223e-02 2.541599999999999970e-01 1.778740000000000043e-01 1.292010000000000103e-01 3.880000000000000202e-03 -1.958139999999999881e-01 -2.404399999999999871e-01 -3.486199999999999716e-02 7.929999999999999549e-02 -1.090470000000000050e-01 -5.623899999999999733e-02 -1.831939999999999957e-01 1.220799999999999941e-01
-4.958469999999999822e-01 -1.422619999999999996e-01 -1.123345000000000038e+00 1.975379999999999914e-01 -3.283340000000000147e-01 -1.275018999999999902e+00 -6.405640000000000223e-01 -5.980370000000000408e-01 8.059359999999999857e-01 -1.971900000000000042e-02 -2.124679999999999902e-01 1.391539999999999999e-01 3.835299999999999820e-02 -2.717490000000000183e-01 1.416692000000000062e+00 -3.327080000000000037e-01 2.243000000000000202e-03 1.342150000000000010e-01 -4.694110000000000227e-01 4.263469999999999760e-01 6.083330000000000126e-01 3.677900000000000058e-01 3.035800000000000165e-01 1.235120999999999913e+00 1.639879999999999949e-01 1.594791000000000070e+00 1.348860000000000059e-01 1.555400000000000012e-02 -1.975379999999999914e-01 1.496699999999999940e-02 1.200622000000000078e+00 6.692270000000000163e-01 1.080460999999999894e+00 2.318780000000000008e-01 1.183239999999999986e-01 1.173560000000000020e-01 -4.436689999999999801e-01 1.265979999999999883e-01 1.184696999999999889e+00 5.408579999999999499e-01 3.578800000000000037e-02 5.565010000000000234e-01 -1.164359999999999978e-01 7.299309999999999965e-01 -3.665249999999999897e-01 6.839020000000000099e-01 1.318580000000000030e-01 -6.139289999999999470e-01 4.482189999999999785e-01 3.893449999999999966e-01 -6.705600000000000449e-01 -1.350959999999999939e-01 -1.830589999999999995e-01 5.775059999999999638e-01 5.021109999999999740e-01 9.847730000000000095e-01 4.628970000000000029e-01 -1.103750000000000009e-01 -5.774319999999999453e-01 -4.678120000000000056e-01 3.257419999999999760e-01 1.729380000000000084e-01 -3.072070000000000078e-01 -4.017279999999999740e-01 -4.457659999999999956e-01 -5.016399999999999748e-01 -5.495400000000000285e-02 3.732469999999999954e-01 -8.222930000000000517e-01 5.253700000000000037e-02 -5.550230000000000441e-01 -6.963110000000000133e-01 -9.182600000000000484e-02 -6.124159999999999604e-01 -1.223619999999999930e+00 -2.607999999999999902e-02 -6.001760000000000428e-01 4.389419999999999988e-01 -1.803930000000000033e+00 -9.533359999999999612e-01 -1.579510000000000081e-01 2.406260000000000066e-01 2.775590000000000002e-01 -2.008479999999999988e-01 3.269639999999999769e-01 -1.148580000000000018e-01 -1.685389999999999944e-01 -1.943380000000000107e-01 -5.440979999999999706e-01 -3.120640000000000081e-01
-5.688399999999999707e-02 -6.871299999999999630e-02 4.031200000000000061e-02 3.347490000000000188e-01 -9.231570000000000054e-01 -1.655399999999999927e-02 1.870809999999999973e-01 -4.022930000000000117e-01 3.568839999999999790e-01 -8.886099999999999555e-02 5.659739999999999771e-01 -1.723220000000000030e-01 -2.723269999999999857e-01 5.124959999999999516e-01 -1.407909999999999995e-01 -9.806099999999999539e-02 -2.109099999999999864e-02 1.914820000000000133e-01 7.011799999999999977e-02 -5.996280000000000499e-01 2.787200000000000094e-02 -2.207299999999999887e-02 -3.225200000000000289e-02 6.995740000000000292e-01 1.268280999999999992e+00 -1.264410999999999952e+00 -5.448929999999999607e-01 6.649890000000000523e-01 3.439220000000000055e-01 -1.026213000000000042e+00 -1.433869999999999867e-01 2.030099999999999960e-01 5.241759999999999753e-01 -2.024370000000000058e-01 1.359779999999999878e-01 2.504359999999999919e-01 2.376439999999999941e-01 -1.708909999999999874e-01 -5.453999999999999647e-03 -5.510490000000000110e-01 3.693640000000000256e-01 -5.531249999999999778e-01 7.580000000000000626e-02 -6.332699999999999441e-02 -1.457229999999999914e-01 -2.206839999999999913e-01 1.898700000000000040e-02 5.503299999999999859e-02 1.985389999999999933e-01 5.621920000000000250e-01 -1.248390000000000055e-01 5.372000000000000039e-03 5.480279999999999596e-01 4.403549999999999964e-01 -7.457800000000000540e-02 -1.086799999999999988e-01 2.496740000000000070e-01 -4.104300000000000170e-01 2.757100000000000106e-01 9.247600000000000264e-02 -1.828499999999999917e-02 2.688099999999999865e-02 -7.093800000000000106e-02 2.476700000000000082e-02 6.311269999999999936e-01 -2.801159999999999761e-01 5.126629999999999798e-01 -5.821600000000000108e-01 -1.336279999999999968e-01 2.752269999999999994e-01 -2.365420000000000023e-01 -3.568239999999999745e-01 -1.137772000000000006e+00 -6.065700000000000258e-02 8.531720000000000415e-01 -4.529690000000000105e-01 7.469029999999999836e-01 6.211750000000000327e-01 1.061850000000000016e-01 -6.077409999999999757e-01 -5.101719999999999589e-01 9.093099999999999794e-02 -6.392799999999999871e-02 -1.160059999999999980e-01 -3.220799999999999774e-01 8.110100000000000642e-02 -2.274760000000000115e-01 1.953099999999999975e-02 1.837969999999999882e-01 2.245300000000000074e-02
9.391610000000000236e-01 5.238369999999999971e-01 9.860879999999999646e-01 -5.559939999999999882e-01 1.843599999999999961e-01 2.612530000000000130e-01 1.442300000000000006e-02 -5.570330000000000004e-01 -3.784950000000000259e-01 6.823080000000000256e-01 9.036000000000000629e-03 1.519260000000000055e-01 5.875400000000000067e-02 6.217799999999999716e-02 -2.106500000000000039e-02 -2.697530000000000205e-01 -3.170400000000000301e-02 4.623700000000000032e-02 -8.186520000000000463e-01 -5.792580000000000506e-01 3.183849999999999736e-01 -4.350930000000000075e-01 1.032869999999999955e+00 7.346169999999999645e-01 -1.122409999999999936e-01 -5.506760000000000543e-01 -5.592890000000000361e-01 1.195993000000000084e+00 3.442500000000000004e-01 -4.743040000000000034e-01 1.120730000000000059e-01 -2.998709999999999987e-01 3.125069999999999792e-01 2.203239999999999921e-01 4.702529999999999766e-01 -3.339650000000000118e-01 -9.380000000000000317e-04 1.732279999999999931e-01 -7.365610000000000213e-01 5.004410000000000247e-01 1.538539999999999908e-01 -1.621900000000000078e-02 -1.054206999999999894e+00 2.910590000000000122e-01 -1.852050000000000085e-01 3.587589999999999946e-01 2.132960000000000134e-01 3.887829999999999897e-01 -1.137828999999999979e+00 -5.532369999999999788e-01 -3.525579999999999825e-01 4.459739999999999815e-01 -6.084570000000000256e-01 -1.483750000000000069e-01 -4.080810000000000271e-01 -5.471979999999999622e-01 -4.720779999999999976e-01 3.460360000000000102e-01 8.106199999999999517e-02 -5.794839999999999991e-01 6.917180000000000550e-01 1.862739999999999951e-01 -1.163699999999999977e-02 1.034289999999999932e-01 -4.527079999999999993e-01 -4.606140000000000234e-01 6.749800000000000244e-02 2.029229999999999923e-01 3.436179999999999790e-01 5.454099999999999920e-02 2.015780000000000072e-01 7.111589999999999856e-01 9.548800000000000343e-02 -1.472390000000000088e-01 2.667570000000000219e-01 -1.318416000000000032e+00 -3.188999999999999994e-03 3.000789999999999846e-01 -3.781299999999999939e-02 -4.923509999999999831e-01 2.926799999999999957e-01 -4.139849999999999919e-01 5.537170000000000147e-01 -3.066180000000000017e-01 3.565189999999999748e-01 2.599739999999999829e-01 -9.046290000000000164e-01 3.195629999999999860e-01 -1.208260000000000028e-01 8.270079999999999654e-01
9.895299999999999929e-02 4.233100000000000057e-02 5.565130000000000354e-01 -9.895800000000000429e-02 -3.295170000000000043e-01 5.139569999999999972e-01 -5.567600000000000326e-02 1.897560000000000080e-01 -2.156500000000000083e-02 -5.493069999999999897e-01 3.057860000000000023e-01 -8.074199999999999433e-02 1.314500000000000113e-01 -2.544270000000000143e-01 2.497929999999999873e-01 -3.497950000000000226e-01 -4.299910000000000121e-01 8.709919999999999884e-01 3.845259999999999789e-01 2.228749999999999898e-01 1.839719999999999966e-01 -1.856700000000000017e-02 -8.496409999999999796e-01 1.618539999999999979e-01 1.395170000000000021e-01 2.660200000000000065e-02 -3.705499999999999766e-02 4.061900000000000233e-02 -3.283920000000000172e-01 -1.205200000000000021e-02 1.550789999999999946e-01 -1.479999999999999979e-03 3.363450000000000051e-01 -3.748300000000000243e-02 -1.129509999999999958e-01 1.184999999999999942e-02 -8.137500000000000289e-02 -1.048130000000000034e-01 -2.456319999999999892e-01 1.465900000000000016e-02 1.048520000000000008e-01 -1.035370000000000040e-01 6.067150000000000043e-01 2.329229999999999912e-01 5.746799999999999825e-02 3.171199999999999714e-02 -6.816140000000000532e-01 1.809550000000000047e-01 -5.618299999999999683e-02 2.335609999999999908e-01 -2.840340000000000087e-01 1.171190000000000009e-01 4.960500000000000326e-02 -3.544450000000000101e-01 -1.566019999999999912e-01 2.996869999999999812e-01 -5.053159999999999874e-01 2.083510000000000084e-01 -2.326840000000000019e-01 -8.249180000000000401e-01 -2.310180000000000011e-01 6.717109999999999470e-01 -5.152050000000000241e-01 -1.865159999999999874e-01 5.427999999999999665e-03 5.474569999999999714e-01 -5.643299999999999705e-02 -1.554850000000000121e-01 2.083889999999999909e-01 2.452429999999999888e-01 6.119459999999999900e-01 -1.681699999999999862e-01 2.022899999999999976e-01 6.805529999999999635e-01 -1.766949999999999910e-01 -4.618229999999999835e-01 -2.143839999999999912e-01 2.154999999999999971e-02 1.636499999999999899e-01 -1.175950000000000051e-01 1.799600000000000158e-02 -2.112690000000000123e-01 1.359920000000000018e-01 -2.739530000000000021e-01 7.845799999999999996e-02 -1.124359999999999943e-01 -2.657229999999999870e-01 -6.733500000000000596e-02 1.118009999999999976e-01 -5.004800000000000221e-02
-1.555709999999999871e-01 4.235260000000000136e-01 5.106800000000000228e-01 1.125479999999999953e-01 -9.050890000000000324e-01 5.493989999999999707e-01 3.512759999999999772e-01 -2.381350000000000133e-01 4.006149999999999989e-01 1.504232000000000014e+00 1.278223000000000109e+00 1.009911999999999921e+00 1.222000000000000031e-01 -1.238547999999999982e+00 -7.672769999999999868e-01 -1.671289999999999998e-01 8.626200000000000534e-01 2.591510000000000202e-01 -2.775730000000000142e-01 3.871850000000000014e-01 -3.656010000000000093e-01 -5.348840000000000261e-01 -2.176470000000000071e-01 2.638800000000000173e-02 4.787810000000000121e-01 -4.614400000000000168e-01 -9.009110000000000174e-01 -3.135919999999999819e-01 2.360960000000000003e-01 -3.915540000000000131e-01 5.366400000000000059e-01 9.799940000000000317e-01 1.206585000000000019e+00 7.540850000000000053e-01 -1.204469999999999985e-01 3.730220000000000202e-01 4.012080000000000091e-01 5.937769999999999992e-01 -4.050770000000000204e-01 -4.107660000000000200e-01 -6.427779999999999605e-01 -1.086602000000000068e+00 -1.040195999999999898e+00 -6.771409999999999929e-01 -4.170999999999999708e-02 -2.611479999999999912e-01 -4.113160000000000149e-01 2.168460000000000110e-01 3.313150000000000261e-01 9.834610000000000296e-01 -6.357260000000000133e-01 -1.491689999999999960e-01 -3.718920000000000003e-01 -1.363000000000000062e-03 -1.019369999999999998e-01 2.357120000000000049e-01 -1.222290000000000043e-01 1.879869999999999874e-01 1.312699999999999978e-01 8.544490000000000141e-01 9.531299999999999495e-02 9.830809999999999826e-01 7.182730000000000503e-01 7.540769999999999973e-01 -9.600919999999999455e-01 -1.340300000000000102e-01 -1.996979999999999866e-01 2.992230000000000167e-01 -1.923300000000000010e-01 -2.815529999999999977e-01 -1.946489999999999887e-01 -1.202941999999999956e+00 -2.619009999999999949e-01 1.674319999999999975e-01 4.372800000000000020e-01 2.125099999999999906e-02 9.416499999999999870e-02 1.583899999999999891e-02 -1.079698000000000047e+00 -1.079760000000000025e-01 -8.440959999999999575e-01 -4.611540000000000084e-01 -8.852670000000000261e-01 -6.558400000000000341e-02 1.325890000000000124e-01 -1.999750000000000139e-01 -3.929139999999999855e-01 -8.753299999999999970e-02 -2.337399999999999894e-02 9.715059999999999807e-01