9.241042624560396490e+00 -2.864620407323237750e+00 -2.032087673925360605e+00 -2.864620407323237750e+00 7.246557730880589077e+00 -7.880565570766637773e-01 -2.032087673925360605e+00 -7.880565570766637773e-01 1.235045879204040453e+01
-5.924368430105142025e+00 7.409431993179771457e-04 2.921254512722245789e+00 7.409431993179771457e-04 -2.042655922062177609e+00 -2.167412974190541242e+00 2.921254512722245789e+00 -2.167412974190541242e+00 -3.161569066216241009e+00
-7.950123497297471253e+00 -3.487026456056266710e+00 -6.368538486190276515e+00 -3.487026456056266710e+00 -6.159198204784000374e+00 1.385014390722779876e+00 -6.368538486190276515e+00 1.385014390722779876e+00 -9.549451432343324386e-01
-5.678097903386609246e+00 1.167942548269161662e+00 -2.632953447087014176e+00 1.167942548269161662e+00 -2.984291825837451562e+00 -6.309502977954721814e-01 -2.632953447087014176e+00 -6.309502977954721814e-01 2.893050778208622997e+00
3.411682471132295724e-01 1.175981572057097635e+00 -3.502692517015046469e+00 1.175981572057097635e+00 2.732492206546308200e+00 -1.470137571034694224e+00 -3.502692517015046469e+00 -1.470137571034694224e+00 -7.712339539762756324e+00
-6.705974317672753315e+00 -1.206836183790155115e+00 -9.480148645932109375e-01 -1.206836183790155115e+00 8.442002428586026230e-01 -6.253382901481666645e-01 -9.480148645932109375e-01 -6.253382901481666645e-01 -1.374506060772863414e+00
-9.595510451104343197e-01 2.436141901554032263e-01 3.698186469457704018e+00 2.436141901554032263e-01 6.463688480011100523e+00 -1.034571405896075991e+00 3.698186469457704018e+00 -1.034571405896075991e+00 -9.116138893344989669e-02
-2.625230598586806963e+00 6.807285528259360285e-01 -1.575346173231366942e+00 6.807285528259360285e-01 8.088860661107478700e-01 -8.708289558271896658e-01 -1.575346173231366942e+00 -8.708289558271896658e-01 8.146531816971991802e+00
-4.420314685322281889e+00 2.401596062109445651e+00 3.892629729885942247e+00 2.401596062109445651e+00 3.835712419428875530e-01 -9.605607698239195802e-01 3.892629729885942247e+00 -9.605607698239195802e-01 -1.338727986204511167e+00
5.381322484204373424e+00 -3.002596792709865792e+00 -3.348388245675992358e+00 -3.002596792709865792e+00 9.404539960040182445e-01 2.678752422638422281e+00 -3.348388245675992358e+00 2.678752422638422281e+00 1.801635918640950962e+00
-6.643927312482753145e+00 1.209069607949450731e+00 5.562601063915707800e-02 1.209069607949450731e+00 -1.034380476024568551e+01 -1.719638386044798795e+00 5.562601063915707800e-02 -1.719638386044798795e+00 -5.159642372190195836e+00
3.663085427693531515e-01 -4.625580097329820561e-01 -4.770402863866306242e-02 -4.625580097329820561e-01 -2.585317631033761554e+00 -6.755238163608366653e-02 -4.770402863866306242e-02 -6.755238163608366653e-02 1.556123133946847537e+00
5.562824389115348822e+00 3.128123199767742779e+00 2.154556627958409631e+00 3.128123199767742779e+00 -6.170928016842432307e+00 2.338384412413221369e+00 2.154556627958409631e+00 2.338384412413221369e+00 -5.115229128443094631e+00
1.633454102969208011e+00 1.238108489106789945e+00 -8.288367369542636309e-01 1.238108489106789945e+00 2.388196185986073417e+00 -1.442613770535831508e+00 -8.288367369542636309e-01 -1.442613770535831508e+00 -3.860953575548832450e+00
2.942303208139603221e+00 -2.363207863031512534e+00 -3.171132560720892446e+00 -2.363207863031512534e+00 6.492001967993058287e+00 8.852954308575561315e-01 -3.171132560720892446e+00 8.852954308575561315e-01 6.865569286583415476e+00
4.908405945831169626e-01 -1.420388970996070643e+00 -2.354187651147878757e+00 -1.420388970996070643e+00 5.957837208218927927e+00 -3.039893670008835258e-01 -2.354187651147878757e+00 -3.039893670008835258e-01 6.861681091039543823e+00
-1.323666909600841768e+00 -1.484050606535439187e-01 3.722577428602058536e-01 -1.484050606535439187e-01 1.260933938846814151e+00 3.949785110320105819e+00 3.722577428602058536e-01 3.949785110320105819e+00 -1.861368449207150055e+00
8.603546115544816741e-01 -2.487468105173919586e+00 1.371433166409551097e-01 -2.487468105173919586e+00 2.037102282722617730e+00 -4.140970173291682599e+00 1.371433166409551097e-01 -4.140970173291682599e+00 1.588251212281794222e+00
9.254250631831812957e-01 -3.021950505779453344e+00 -7.906736133296081714e-01 -3.021950505779453344e+00 1.084892148214707852e+01 -2.403447275093751667e+00 -7.906736133296081714e-01 -2.403447275093751667e+00 3.483407005299151038e+00
-1.982342552476280995e+00 -3.069309126992468273e-01 -9.313006856916841159e-01 -3.069309126992468273e-01 -1.008086365450115984e+00 -1.312581505302838236e+00 -9.313006856916841159e-01 -1.312581505302838236e+00 -1.722150237585706511e+00
-4.042136855521815675e-01 2.937302889579290199e-01 -2.361382451121361858e-01 2.937302889579290199e-01 2.220739145953709137e+00 -6.145495970497594218e-01 -2.361382451121361858e-01 -6.145495970497594218e-01 4.362893258988255751e-01
1.667246071586865108e+00 3.090860316123743790e+00 3.511309165196865756e+00 3.090860316123743790e+00 -8.660832339867775787e+00 1.415141010812437372e+00 3.511309165196865756e+00 1.415141010812437372e+00 -4.952219460499353687e+00
-4.543318292922960744e+00 -1.032133135519024858e+00 4.992945065403729399e-01 -1.032133135519024858e+00 1.971251726025462281e+00 -1.617502023808893075e+00 4.992945065403729399e-01 -1.617502023808893075e+00 2.203326579383711459e-01
9.368099636314708434e-02 -4.208680681402026114e-01 -2.224823135028334953e+00 -4.208680681402026114e-01 -1.690547154650070771e+00 -5.089491846025503641e+00 -2.224823135028334953e+00 -5.089491846025503641e+00 -2.597641447957704131e+00
-3.429033214430307730e+00 2.100638462859250488e+00 -7.745073036633493002e-01 2.100638462859250488e+00 -2.016836067549513167e+00 2.669226891848230920e+00 -7.745073036633493002e-01 2.669226891848230920e+00 -8.650757373840719522e-01
-1.128040789737551952e+00 -3.562354727269324783e+00 1.075723132417628403e+00 -3.562354727269324783e+00 -2.516678228016477892e+00 -3.172285147311625142e+00 1.075723132417628403e+00 -3.172285147311625142e+00 1.407099405657403102e+00
9.173995340683462063e-02 -1.131386914070693361e+00 -1.525017694967131021e+00 -1.131386914070693361e+00 1.629987661055399828e+00 -2.922731949523771910e-01 -1.525017694967131021e+00 -2.922731949523771910e-01 5.640467917798299702e+00
1.109379111061898460e+00 -7.395140321279244366e-01 2.273790660557238663e+00 -7.395140321279244366e-01 3.188377917143430551e+00 3.515853913435358358e-01 2.273790660557238663e+00 3.515853913435358358e-01 6.668445958046417266e-01
2.960506221052030096e+00 3.141768839486604126e+00 3.524108928111642669e+00 3.141768839486604126e+00 7.549596082327745705e+00 5.071558860899791910e-01 3.524108928111642669e+00 5.071558860899791910e-01 2.214414289172029982e+00
7.209317933635150943e+00 3.872629019085548130e+00 6.154409594787944471e+00 3.872629019085548130e+00 9.466497497848918030e+00 -1.246722708194289764e+00 6.154409594787944471e+00 -1.246722708194289764e+00 4.882452469751755508e+00
-4.687563890774101516e+00 -5.929807740154604406e-02 -3.440817700984706295e+00 -5.929807740154604406e-02 -6.767401460607141983e-01 -3.006606874270621788e+00 -3.440817700984706295e+00 -3.006606874270621788e+00 4.775393037370288418e+00
1.044853445982991014e+00 7.852017187477374760e-01 -3.406729164410649879e+00 7.852017187477374760e-01 -4.936956557412101709e+00 1.666449950801487834e+00 -3.406729164410649879e+00 1.666449950801487834e+00 -1.838043524601718381e+00
-2.305349460621268332e+00 5.859567512524403998e-01 -6.415559897114883059e-01 5.859567512524403998e-01 6.382471788691604919e-01 -1.183634544302279545e+00 -6.415559897114883059e-01 -1.183634544302279545e+00 -9.487033663430328723e-01
1.204857239366109001e+00 -1.227667216447736909e+00 4.655483703394082129e-01 -1.227667216447736909e+00 3.617792841011028410e-02 -4.899834709158712998e-01 4.655483703394082129e-01 -4.899834709158712998e-01 9.162510336849591042e+00
-1.495927486161088948e+00 2.494975690540527147e+00 1.369874776733955857e+00 2.494975690540527147e+00 4.562173009272793567e-01 1.194491900856974542e+00 1.369874776733955857e+00 1.194491900856974542e+00 2.984130959173452613e+00
-9.389564396734370044e-01 4.724363232317820849e-01 -9.850220972915187945e-01 4.724363232317820849e-01 -2.870916881743965199e+00 -7.036072757908139463e-01 -9.850220972915187945e-01 -7.036072757908139463e-01 2.893259193835661325e+00
-4.055109051838518219e+00 -2.316016712800999411e+00 -1.095716143269813925e+00 -2.316016712800999411e+00 1.056591613865102558e-01 -1.048807475973120074e+00 -1.095716143269813925e+00 -1.048807475973120074e+00 1.946327492916299917e+00
1.210770247216994777e+00 -8.128951161896851019e-02 -7.666083313493009532e-01 -8.128951161896851019e-02 -2.643937449206809731e+00 -5.640408534289780701e-02 -7.666083313493009532e-01 -5.640408534289780701e-02 6.086585267609390115e-02
-3.006070482811996403e+00 -8.457709761685372474e-01 4.303872888696143317e-02 -8.457709761685372474e-01 5.413652472624821410e-01 -5.577967778102464358e+00 4.303872888696143317e-02 -5.577967778102464358e+00 1.594094625299844609e-02
1.461012632658287957e+00 -1.205850909103778568e+00 -2.839948155820122278e+00 -1.205850909103778568e+00 -1.936056598272313689e+00 2.194902478206834484e+00 -2.839948155820122278e+00 2.194902478206834484e+00 5.245560800362795817e+00
-1.523264464326518741e+00 -1.152953436119527497e+00 2.167553465928389933e+00 -1.152953436119527497e+00 -6.280731574428451147e-02 3.105997503316111796e+00 2.167553465928389933e+00 3.105997503316111796e+00 7.746822455607229596e-01
4.084712951296276984e+00 -1.676760088285753181e+00 2.922160074176329836e+00 -1.676760088285753181e+00 5.875158467375457549e-01 7.484055435614854757e-01 2.922160074176329836e+00 7.484055435614854757e-01 -5.480799643258590231e-03
-4.322141111740004149e+00 -1.286265179474444409e+00 -5.928826693510695911e+00 -1.286265179474444409e+00 1.160802981738876111e-01 2.277868762643442846e+00 -5.928826693510695911e+00 2.277868762643442846e+00 7.058796421294408319e+00
-1.937498048061489175e+00 7.014961214348317542e-01 -2.331927601905505743e+00 7.014961214348317542e-01 -2.555447713919490660e+00 -1.287620846007610398e+00 -2.331927601905505743e+00 -1.287620846007610398e+00 1.928155071531161946e+00
-2.146486651373383570e+00 2.653753171699072322e+00 -1.321979676959049055e+00 2.653753171699072322e+00 5.476799479326410758e-01 3.819595125362325483e+00 -1.321979676959049055e+00 3.819595125362325483e+00 2.052244370665564865e+00
2.994339878913943487e+00 1.633907407079079110e+00 2.611794030480702578e+00 1.633907407079079110e+00 5.382370533673551449e+00 -3.141043617226856544e+00 2.611794030480702578e+00 -3.141043617226856544e+00 3.544112211286663872e+00
7.204332410253730501e+00 -1.880552985540606015e+00 -1.769413672471867427e+00 -1.880552985540606015e+00 -1.470381921440288252e-02 4.382456798963633715e-01 -1.769413672471867427e+00 4.382456798963633715e-01 5.535405461289675255e-01
-3.545546406609720425e+00 1.395970627049399893e+00 -1.846219311806896357e+00 1.395970627049399893e+00 -5.643055080441141680e-01 5.826357335550212957e-01 -1.846219311806896357e+00 5.826357335550212957e-01 -2.426037900047741225e+00
2.329515948601869280e+00 8.419618603624904329e-01 -1.303007622219469308e+00 8.419618603624904329e-01 -2.207635728668427610e+00 2.446512184731612027e+00 -1.303007622219469308e+00 2.446512184731612027e+00 3.544559905080250317e+00
-2.798422289389113971e+00 -1.830885763900125029e+00 -2.850287925734480865e+00 -1.830885763900125029e+00 -4.130794325329711469e+00 -1.855162529824853745e+00 -2.850287925734480865e+00 -1.855162529824853745e+00 -1.249065407641306358e+00
