2.516849999999999810e+00 5.594599999999999573e-01 1.189349999999999952e+01 9.944100000000000161e-01 3.866919999999999913e+00 1.173509999999999920e+01 7.071839999999999904e+00 6.633099999999999552e-01 1.208039999999999914e+01 5.234370000000000189e+00 4.118450000000000166e+00 1.177389999999999937e+01 8.820999999999999952e-01 1.095300000000000024e-01 1.641619999999999990e+01 -1.137489999999999890e+00 3.682560000000000056e+00 1.683739999999999881e+01 4.131639999999999979e+00 8.145799999999999708e-01 1.521480000000000032e+01 2.468100000000000183e+00 4.534930000000000128e+00 1.529780000000000051e+01 5.367230000000000167e+00 6.482219999999999871e+00 1.081639999999999979e+01 7.508549999999999613e+00 3.018470000000000208e+00 1.104819999999999958e+01 9.008800000000000141e-01 6.321830000000000283e+00 1.077420000000000044e+01 2.951049999999999951e+00 2.735879999999999868e+00 1.050890000000000057e+01 5.759999999999999565e-01 2.882260000000000044e+00 1.406090000000000018e+01 -1.768019999999999925e+00 6.229669999999999597e+00 1.408929999999999971e+01 4.672550000000000203e+00 3.615769999999999929e+00 1.427020000000000088e+01 6.645100000000000229e+00 2.916599999999999748e-01 1.462390000000000079e+01 4.180170000000000385e+00 6.171129999999999782e+00 1.798400000000000176e+01 -2.946120000000000072e+00 5.150559999999999583e+00 1.810129999999999839e+01 9.761800000000000477e-01 5.801709999999999923e+00 1.715210000000000079e+01 2.627540000000000209e+00 2.085319999999999840e+00 1.718009999999999948e+01
1.970159999999999911e+00 2.120839999999999836e+00 1.240559999999999974e+01 6.659699999999999509e-01 5.867449999999999832e+00 1.251679999999999993e+01 6.565839999999999677e+00 2.206869999999999887e+00 1.127890000000000015e+01 4.504360000000000142e+00 5.495149999999999757e+00 1.236020000000000074e+01 4.352360000000000007e+00 5.164480000000000182e+00 1.609380000000000166e+01 6.072250000000000369e+00 2.031590000000000007e+00 1.595550000000000068e+01 2.994999999999999885e-01 4.762299999999999756e+00 1.637010000000000076e+01 1.985740000000000061e+00 1.675759999999999916e+00 1.587359999999999971e+01 4.590199999999999836e-01 7.746800000000000352e-01 1.051149999999999984e+01 -1.786359999999999948e+00 4.573450000000000237e+00 1.045480000000000054e+01 4.126789999999999736e+00 1.383499999999999952e+00 1.103500000000000014e+01 2.242399999999999949e+00 4.326310000000000322e+00 1.100060000000000038e+01 -2.641000000000000014e-01 3.358169999999999877e+00 1.411400000000000077e+01 -1.562889999999999890e+00 6.611819999999999808e+00 1.379759999999999920e+01 4.422699999999999854e+00 3.182580000000000187e+00 1.410619999999999941e+01 6.744299999999999962e+00 2.923999999999999863e-02 1.384420000000000073e+01 -1.316999999999999942e-02 7.857600000000000140e-01 1.726099999999999923e+01 4.165329999999999977e+00 3.760800000000000254e-01 1.702390000000000114e+01 -2.027010000000000201e+00 3.948440000000000172e+00 1.774709999999999965e+01 2.303970000000000073e+00 3.792650000000000077e+00 1.737580000000000169e+01
2.078720000000000123e+00 1.275509999999999922e+00 1.218410000000000082e+01 -1.386600000000000055e-01 4.450899999999999856e+00 1.174029999999999951e+01 6.613990000000000258e+00 1.083139999999999992e+00 1.225189999999999912e+01 4.396580000000000155e+00 4.637450000000000294e+00 1.188460000000000072e+01 -2.323000000000000065e-02 7.058999999999999997e-02 1.610610000000000142e+01 6.481169999999999654e+00 3.667479999999999851e+00 1.562829999999999941e+01 4.461170000000000080e+00 1.630000000000000060e-01 1.535769999999999946e+01 2.042590000000000128e+00 3.355690000000000062e+00 1.632799999999999940e+01 4.340000000000000108e-02 8.341999999999999416e-02 1.062529999999999930e+01 6.374310000000000365e+00 3.388230000000000075e+00 1.053079999999999927e+01 4.283719999999999750e+00 6.121000000000000052e-02 1.095500000000000007e+01 2.277460000000000040e+00 3.610739999999999839e+00 1.062190000000000012e+01 4.950999999999999845e-02 2.547349999999999781e+00 1.371390000000000065e+01 -1.711389999999999967e+00 6.098270000000000302e+00 1.414470000000000027e+01 4.545359999999999623e+00 2.627069999999999794e+00 1.414509999999999934e+01 2.698539999999999939e+00 5.917790000000000106e+00 1.417639999999999922e+01 4.972019999999999662e+00 4.877550000000000274e+00 1.765800000000000125e+01 -6.570599999999999774e-01 2.077040000000000219e+00 1.735450000000000159e+01 7.735000000000000209e-02 6.787069999999999936e+00 1.791379999999999839e+01 1.913629999999999942e+00 5.278209999999999624e+00 1.845929999999999893e+01
1.884030000000000094e+00 3.488999999999999740e-02 1.180100000000000016e+01 -5.790000000000000008e-02 3.622669999999999835e+00 1.161909999999999954e+01 2.368020000000000014e+00 7.096669999999999590e+00 1.168309999999999960e+01 4.361749999999999794e+00 3.559870000000000090e+00 1.168950000000000067e+01 4.002000000000000002e-02 1.621559999999999890e+00 1.512930000000000064e+01 6.008370000000000211e+00 3.706640000000000157e+00 1.714099999999999824e+01 4.478950000000000209e+00 1.788790000000000102e+00 1.498179999999999978e+01 3.104890000000000150e+00 5.639490000000000336e+00 1.677019999999999911e+01 4.548580000000000290e+00 5.976679999999999993e+00 1.057959999999999923e+01 6.729309999999999903e+00 2.351840000000000153e+00 1.063959999999999972e+01 -1.295699999999999907e-01 6.161360000000000170e+00 1.038369999999999926e+01 2.034149999999999903e+00 2.461710000000000065e+00 1.056579999999999941e+01 2.058099999999999929e-01 4.025420000000000442e+00 1.427270000000000039e+01 -2.003719999999999946e+00 7.082670000000000243e+00 1.427549999999999919e+01 4.346409999999999663e+00 4.169430000000000192e+00 1.415489999999999959e+01 6.662539999999999907e+00 4.541899999999999826e-01 1.443140000000000001e+01 -2.059400000000000119e-01 7.432999999999999607e-01 1.757949999999999946e+01 -4.163000000000000034e-01 3.466709999999999958e+00 1.859189999999999898e+01 3.970899999999999985e-01 5.656139999999999723e+00 1.830709999999999837e+01 4.651049999999999685e+00 1.312440000000000051e+00 1.751109999999999900e+01
1.688090000000000090e+00 2.763399999999999745e-01 1.190530000000000044e+01 -3.279799999999999938e-01 3.644060000000000077e+00 1.194969999999999999e+01 6.199250000000000149e+00 3.533299999999999774e-01 1.160970000000000013e+01 4.031450000000000422e+00 3.815479999999999983e+00 1.137770000000000081e+01 -2.389999999999999902e-01 1.804890000000000105e+00 1.532830000000000048e+01 6.134820000000000384e+00 3.936669999999999892e+00 1.704220000000000113e+01 4.412320000000000242e+00 1.262539999999999996e+00 1.512369999999999948e+01 2.768879999999999786e+00 4.802959999999999674e+00 1.650890000000000057e+01 4.182220000000000049e+00 6.307649999999999757e+00 1.056320000000000014e+01 6.440290000000000070e+00 2.662710000000000132e+00 1.046540000000000070e+01 -2.180799999999999961e-01 6.248199999999999754e+00 1.077740000000000009e+01 1.712709999999999955e+00 2.600620000000000154e+00 1.067319999999999958e+01 -1.509600000000000108e-01 4.253680000000000128e+00 1.450450000000000017e+01 1.853490000000000082e+00 9.593999999999999750e-02 1.446149999999999913e+01 4.474409999999999776e+00 3.426740000000000119e+00 1.381489999999999974e+01 6.544830000000000148e+00 1.473500000000000087e-01 1.434490000000000087e+01 1.885400000000000131e-01 7.963000000000000078e-01 1.762249999999999872e+01 1.980200000000000016e-01 3.184699999999999864e+00 1.844119999999999848e+01 5.339899999999999647e-01 5.707900000000000418e+00 1.786070000000000135e+01 4.667370000000000019e+00 1.489919999999999911e+00 1.771900000000000119e+01
1.737069999999999892e+00 1.416060000000000096e+00 1.185820000000000007e+01 -9.643000000000000183e-02 4.892789999999999750e+00 1.223850000000000016e+01 5.895080000000000098e+00 1.366559999999999997e+00 1.203659999999999997e+01 3.714069999999999983e+00 5.057920000000000194e+00 1.173210000000000086e+01 -4.086339999999999861e+00 7.090659999999999741e+00 1.640719999999999956e+01 5.628269999999999662e+00 3.533170000000000144e+00 1.576009999999999955e+01 -3.136700000000000044e-01 6.954180000000000028e+00 1.560340000000000060e+01 2.058990000000000098e+00 3.520509999999999806e+00 1.561180000000000057e+01 7.675690000000000346e+00 2.606200000000000183e-01 1.032290000000000063e+01 -2.007820000000000160e+00 3.817849999999999966e+00 1.063299999999999912e+01 3.823640000000000150e+00 1.457700000000000107e-01 1.084689999999999976e+01 1.726269999999999971e+00 3.849489999999999856e+00 1.056329999999999991e+01 1.112599999999999978e-01 2.089739999999999931e+00 1.377979999999999983e+01 -2.327840000000000131e+00 5.926429999999999865e+00 1.427940000000000076e+01 3.832920000000000105e+00 2.309950000000000170e+00 1.414830000000000076e+01 1.844519999999999937e+00 5.888650000000000162e+00 1.420010000000000083e+01 4.072999999999999954e-01 5.775509999999999700e+00 1.916989999999999839e+01 -1.272000000000000040e-02 3.122980000000000089e+00 1.725890000000000057e+01 3.718809999999999949e+00 4.008399999999999741e-01 1.797119999999999962e+01 3.753680000000000128e+00 4.338799999999999990e+00 1.745200000000000173e+01
2.597510000000000208e+00 1.535870000000000068e+00 1.125019999999999953e+01 2.448200000000000098e-01 4.543120000000000047e+00 1.247739999999999938e+01 6.390600000000000058e+00 1.350610000000000088e+00 1.155100000000000016e+01 4.517979999999999663e+00 4.727190000000000225e+00 1.197600000000000087e+01 3.627709999999999990e+00 6.906469999999999665e+00 1.848410000000000153e+01 5.982739999999999725e+00 3.630910000000000082e+00 1.529180000000000028e+01 3.727219999999999978e+00 2.575299999999999812e-01 1.555489999999999995e+01 1.631780000000000008e+00 4.134699999999999598e+00 1.605389999999999873e+01 4.368400000000000061e-01 7.759000000000000619e-02 1.050249999999999950e+01 -1.839909999999999934e+00 3.756920000000000037e+00 1.057740000000000080e+01 3.424599999999999866e-01 6.960320000000000285e+00 1.034580000000000055e+01 2.264310000000000045e+00 4.161330000000000418e+00 1.074440000000000062e+01 5.691000000000000225e-02 2.416090000000000071e+00 1.400689999999999991e+01 -2.062450000000000117e+00 5.871789999999999843e+00 1.398569999999999958e+01 4.211140000000000327e+00 2.220950000000000202e+00 1.332390000000000008e+01 1.997859999999999969e+00 6.205910000000000259e+00 1.455519999999999925e+01 1.831139999999999990e+00 5.208870000000000111e+00 1.880229999999999890e+01 -4.051899999999999946e-01 4.317490000000000272e+00 1.747159999999999869e+01 -2.150100000000000122e+00 6.340950000000000308e+00 1.757529999999999859e+01 3.790259999999999962e+00 2.518139999999999823e+00 1.675059999999999860e+01
2.126290000000000013e+00 1.544890000000000096e+00 1.177679999999999971e+01 -6.272999999999999410e-02 5.100459999999999994e+00 1.172020000000000017e+01 6.141460000000000363e+00 1.634330000000000060e+00 1.221840000000000082e+01 3.948440000000000172e+00 5.136409999999999698e+00 1.210979999999999990e+01 3.780660000000000132e+00 6.984090000000000131e+00 1.532680000000000042e+01 -1.689929999999999932e+00 3.350350000000000161e+00 1.648509999999999920e+01 -2.949600000000000000e-01 7.103100000000000414e+00 1.622579999999999956e+01 2.490099999999999980e+00 3.377099999999999991e+00 1.564899999999999913e+01 -3.092999999999999916e-02 4.188799999999999746e-01 1.081949999999999967e+01 -2.161880000000000024e+00 3.915000000000000036e+00 1.084900000000000020e+01 4.099289999999999878e+00 3.226899999999999769e-01 1.060130000000000017e+01 2.099689999999999834e+00 3.917889999999999873e+00 1.060149999999999970e+01 -5.561099999999999932e-01 2.282379999999999853e+00 1.434459999999999980e+01 -2.398369999999999891e+00 5.384070000000000356e+00 1.426050000000000040e+01 3.476809999999999956e+00 1.889880000000000004e+00 1.385859999999999914e+01 1.659019999999999939e+00 5.726939999999999920e+00 1.392109999999999914e+01 7.652569999999999872e+00 4.596700000000000230e-01 1.778269999999999840e+01 6.663499999999999979e-01 4.691600000000000215e+00 1.729870000000000019e+01 -3.086370000000000058e+00 5.793770000000000309e+00 1.823890000000000100e+01 4.032350000000000101e+00 2.532939999999999969e+00 1.767739999999999867e+01
2.285680000000000156e+00 1.347509999999999986e+00 1.197589999999999932e+01 2.674199999999999910e-01 4.879279999999999617e+00 1.197160000000000046e+01 6.368170000000000108e+00 1.475980000000000070e+00 1.206080000000000041e+01 4.330479999999999663e+00 4.931460000000000399e+00 1.186570000000000036e+01 3.910140000000000171e+00 6.985809999999999853e+00 1.535410000000000075e+01 5.943839999999999790e+00 3.150500000000000078e+00 1.621450000000000102e+01 1.961499999999999910e-01 6.671120000000000161e+00 1.519699999999999918e+01 1.785080000000000000e+00 2.507219999999999782e+00 1.651269999999999882e+01 2.168799999999999895e-01 3.964900000000000091e-01 1.078720000000000034e+01 -1.749579999999999913e+00 3.639130000000000198e+00 1.066280000000000072e+01 4.395229999999999748e+00 1.710299999999999876e-01 1.064830000000000076e+01 2.374760000000000204e+00 3.686240000000000183e+00 1.056700000000000017e+01 -1.084500000000000047e-01 2.287030000000000118e+00 1.421390000000000065e+01 -2.182310000000000194e+00 5.802459999999999951e+00 1.394410000000000061e+01 3.968440000000000190e+00 1.983020000000000005e+00 1.398959999999999937e+01 2.148769999999999847e+00 5.258530000000000371e+00 1.416699999999999982e+01 -3.550219999999999931e+00 6.530420000000000336e+00 1.806429999999999936e+01 3.672590000000000021e+00 4.366270000000000095e+00 1.834939999999999927e+01 4.651150000000000340e+00 2.600999999999999840e-02 1.763739999999999952e+01 2.853899999999999770e-01 4.724610000000000198e+00 1.770980000000000132e+01
1.898330000000000073e+00 1.305930000000000035e+00 1.197090000000000032e+01 2.912399999999999989e-01 5.018430000000000391e+00 1.199920000000000009e+01 6.192059999999999675e+00 1.324240000000000084e+00 1.213180000000000014e+01 4.181779999999999831e+00 4.910849999999999937e+00 1.184750000000000014e+01 8.640000000000000110e-03 3.618299999999999850e-01 1.671059999999999945e+01 5.351619999999999600e+00 3.995909999999999851e+00 1.590210000000000079e+01 -6.067999999999999783e-02 7.194890000000000008e+00 1.540900000000000070e+01 1.209310000000000107e+00 3.891890000000000072e+00 1.555410000000000004e+01 -4.155870000000000175e+00 7.295029999999999681e+00 1.065869999999999962e+01 -1.763239999999999919e+00 3.721060000000000034e+00 1.066249999999999964e+01 4.028039999999999843e+00 7.804999999999999438e-02 1.098649999999999949e+01 2.190620000000000012e+00 3.605140000000000011e+00 1.063679999999999914e+01 3.005800000000000138e-01 2.018679999999999808e+00 1.396570000000000000e+01 -2.133169999999999789e+00 5.927789999999999893e+00 1.400319999999999965e+01 4.373050000000000104e+00 2.409130000000000216e+00 1.420500000000000007e+01 1.977240000000000109e+00 5.975600000000000023e+00 1.404110000000000014e+01 6.919600000000000195e-01 5.852170000000000094e+00 1.866229999999999833e+01 -5.738999999999999657e-01 3.382270000000000110e+00 1.727359999999999829e+01 -1.092589999999999950e+00 7.196449999999999569e+00 1.789979999999999905e+01 3.112029999999999852e+00 4.634500000000000064e+00 1.722759999999999891e+01
2.167359999999999953e+00 1.431230000000000002e+00 1.206250000000000000e+01 -5.981499999999999595e-01 4.553060000000000329e+00 1.219079999999999941e+01 5.829110000000000014e+00 1.122339999999999893e+00 1.216399999999999970e+01 3.665480000000000071e+00 5.083140000000000214e+00 1.182699999999999996e+01 7.763209999999999944e+00 2.009299999999999975e-01 1.555390000000000050e+01 -1.574000000000000066e+00 3.794869999999999965e+00 1.565809999999999924e+01 3.784969999999999946e+00 9.640999999999999570e-02 1.547170000000000023e+01 2.472949999999999982e+00 3.654220000000000024e+00 1.578459999999999930e+01 -3.937000000000000222e-02 3.948099999999999943e-01 1.070429999999999993e+01 5.530160000000000409e+00 3.454520000000000035e+00 1.059350000000000058e+01 -1.716100000000000125e-01 6.936819999999999986e+00 1.086689999999999934e+01 1.727749999999999897e+00 3.688450000000000006e+00 1.073220000000000063e+01 3.297300000000000231e-01 2.498050000000000104e+00 1.431099999999999994e+01 -2.199520000000000142e+00 5.987210000000000143e+00 1.429540000000000077e+01 4.321200000000000152e+00 2.615880000000000205e+00 1.422579999999999956e+01 1.947000000000000064e+00 5.853519999999999612e+00 1.404630000000000045e+01 4.245129999999999626e+00 5.745459999999999567e+00 1.750840000000000174e+01 -1.983430000000000026e+00 3.711749999999999883e+00 1.813469999999999871e+01 4.199950000000000294e+00 9.278399999999999981e-01 1.787500000000000000e+01 2.071509999999999962e+00 2.296419999999999906e+00 1.811189999999999856e+01
1.765309999999999935e+00 4.431599999999999984e-01 1.198600000000000065e+01 -5.262999999999999901e-01 3.817470000000000141e+00 1.199009999999999998e+01 5.954810000000000159e+00 2.628099999999999881e-01 1.155039999999999978e+01 3.945149999999999935e+00 3.820689999999999920e+00 1.177669999999999995e+01 8.925699999999999745e-01 1.058810000000000029e+00 1.589119999999999955e+01 -1.443859999999999921e+00 3.765140000000000153e+00 1.770240000000000080e+01 4.633169999999999789e+00 5.265400000000000080e-01 1.576290000000000013e+01 2.498320000000000096e+00 4.479860000000000397e+00 1.535769999999999946e+01 4.143480000000000274e+00 5.999629999999999797e+00 1.047700000000000031e+01 5.945680000000000298e+00 2.685690000000000133e+00 1.051510000000000034e+01 -3.167499999999999760e-01 6.112420000000000186e+00 1.071509999999999962e+01 1.581960000000000033e+00 2.879560000000000120e+00 1.070490000000000030e+01 -4.222999999999999671e-02 3.142129999999999868e+00 1.453640000000000043e+01 -1.612600000000000033e+00 6.517719999999999736e+00 1.431380000000000052e+01 4.565409999999999968e+00 3.300190000000000179e+00 1.405889999999999951e+01 6.637229999999999741e+00 1.711399999999999866e-01 1.408980000000000032e+01 7.548040000000000305e+00 1.175429999999999975e+00 1.807829999999999870e+01 4.557059999999999889e+00 5.252460000000000129e+00 1.765490000000000137e+01 9.389100000000000223e-01 5.393559999999999910e+00 1.733429999999999893e+01 3.012230000000000185e+00 2.200680000000000192e+00 1.701360000000000028e+01
2.321740000000000137e+00 1.257989999999999942e+00 1.208019999999999960e+01 1.902000000000000079e-01 4.496120000000000339e+00 1.168369999999999997e+01 6.678060000000000329e+00 1.133799999999999919e+00 1.211909999999999954e+01 4.612219999999999764e+00 4.466649999999999565e+00 1.184099999999999930e+01 -3.381590000000000096e+00 6.934770000000000323e+00 1.541300000000000026e+01 -1.522170000000000023e+00 3.424119999999999830e+00 1.691059999999999874e+01 4.391009999999999636e+00 6.875400000000000400e-01 1.641669999999999874e+01 1.857620000000000049e+00 3.896459999999999813e+00 1.539819999999999922e+01 3.668199999999999794e-01 1.593999999999999931e-02 1.080390000000000050e+01 -1.877780000000000005e+00 3.485090000000000021e+00 1.041799999999999926e+01 3.590999999999999748e-01 7.056099999999999817e+00 1.098460000000000036e+01 2.420889999999999986e+00 3.397920000000000051e+00 1.053899999999999970e+01 1.442199999999999871e-01 2.956240000000000201e+00 1.369979999999999976e+01 -1.139969999999999928e+00 6.535709999999999908e+00 1.406380000000000052e+01 4.311720000000000219e+00 3.427859999999999907e+00 1.421470000000000056e+01 2.703190000000000204e+00 6.761230000000000295e+00 1.441949999999999932e+01 2.697189999999999976e+00 4.678350000000000009e+00 1.773100000000000165e+01 4.664130000000000109e+00 5.942339999999999733e+00 1.787379999999999924e+01 -9.587299999999999711e-01 5.620689999999999742e+00 1.797710000000000008e+01 1.532180000000000097e+00 1.635529999999999928e+00 1.699230000000000018e+01
2.060979999999999812e+00 1.255900000000000016e+00 1.220149999999999935e+01 6.973000000000000032e-02 5.027759999999999785e+00 1.215329999999999977e+01 6.282199999999999562e+00 1.205650000000000110e+00 1.200680000000000014e+01 4.179240000000000066e+00 4.989419999999999966e+00 1.198780000000000001e+01 -1.786000000000000087e-02 4.950700000000000101e-01 1.614849999999999852e+01 5.995250000000000412e+00 3.762350000000000083e+00 1.581409999999999982e+01 4.274960000000000093e+00 2.050000000000000173e-03 1.526350000000000051e+01 1.792939999999999978e+00 3.489230000000000054e+00 1.581329999999999991e+01 8.684999999999999665e-02 4.864000000000000268e-02 1.070700000000000074e+01 -2.093240000000000212e+00 3.640039999999999942e+00 1.081729999999999947e+01 4.226130000000000386e+00 3.282000000000000195e-02 1.079190000000000005e+01 2.117440000000000211e+00 3.621599999999999930e+00 1.088780000000000037e+01 -2.671999999999999931e-01 2.354140000000000121e+00 1.373840000000000039e+01 -2.110139999999999905e+00 5.914250000000000007e+00 1.399970000000000070e+01 4.128569999999999851e+00 2.411579999999999835e+00 1.412599999999999945e+01 2.119730000000000114e+00 5.983530000000000015e+00 1.406290000000000084e+01 1.740490000000000093e+00 6.144090000000000273e+00 1.831940000000000168e+01 -7.527500000000000302e-01 2.609789999999999832e+00 1.760010000000000119e+01 3.855179999999999829e+00 3.619200000000000195e-01 1.784740000000000038e+01 3.848170000000000091e+00 4.454430000000000334e+00 1.752329999999999899e+01
2.130220000000000002e+00 7.487899999999999556e-01 1.176909999999999989e+01 -4.997999999999999665e-02 4.502410000000000245e+00 1.191080000000000005e+01 6.581279999999999575e+00 9.448800000000000532e-01 1.226169999999999938e+01 4.601189999999999891e+00 4.292460000000000164e+00 1.187550000000000061e+01 -1.163700000000000012e-01 4.023200000000000109e-01 1.597770000000000046e+01 -1.980679999999999996e+00 3.741400000000000059e+00 1.549939999999999962e+01 4.319790000000000241e+00 4.538999999999999979e-02 1.547509999999999941e+01 2.272569999999999979e+00 3.026879999999999793e+00 1.633340000000000103e+01 4.632259999999999600e+00 6.800930000000000142e+00 1.077410000000000068e+01 6.809289999999999843e+00 3.283500000000000085e+00 1.054080000000000084e+01 5.679499999999999549e-01 6.910120000000000040e+00 1.074430000000000085e+01 2.243380000000000152e+00 3.408189999999999831e+00 1.102590000000000003e+01 3.167300000000000115e-01 2.888990000000000169e+00 1.404219999999999935e+01 -1.957359999999999989e+00 6.407429999999999737e+00 1.407659999999999911e+01 4.842489999999999739e+00 2.618710000000000093e+00 1.379490000000000016e+01 2.636929999999999996e+00 6.095509999999999984e+00 1.433350000000000080e+01 4.846849999999999881e+00 5.153039999999999843e+00 1.745090000000000074e+01 -6.622099999999999653e-01 3.590749999999999886e+00 1.794529999999999959e+01 4.102229999999999599e+00 1.721570000000000045e+00 1.737209999999999965e+01 1.397149999999999892e+00 3.082559999999999967e+00 1.873639999999999972e+01
2.380560000000000009e+00 6.041699999999999848e-01 1.209440000000000026e+01 6.040200000000000014e-01 4.381120000000000125e+00 1.210629999999999917e+01 6.631179999999999630e+00 8.389999999999999680e-01 1.190750000000000064e+01 4.555679999999999730e+00 3.991460000000000008e+00 1.229860000000000042e+01 7.503999999999999559e-02 1.897000000000000075e-02 1.565719999999999956e+01 -1.781959999999999988e+00 3.297689999999999788e+00 1.563299999999999912e+01 1.493400000000000005e-01 6.814779999999999838e+00 1.724190000000000111e+01 2.538330000000000197e+00 3.526569999999999983e+00 1.585089999999999932e+01 -3.605239999999999778e+00 6.286249999999999893e+00 1.074569999999999936e+01 -1.518189999999999928e+00 3.122619999999999951e+00 1.090740000000000087e+01 3.811700000000000088e-01 6.632839999999999847e+00 1.060800000000000054e+01 2.457129999999999814e+00 2.930250000000000021e+00 1.087920000000000087e+01 3.107599999999999807e-01 2.297099999999999920e+00 1.415269999999999939e+01 -1.276019999999999932e+00 5.738949999999999996e+00 1.396020000000000039e+01 4.263569999999999638e+00 2.234830000000000094e+00 1.424339999999999939e+01 2.403300000000000214e+00 5.551350000000000229e+00 1.385040000000000049e+01 6.641549999999999621e+00 1.295020000000000060e+00 1.740859999999999985e+01 4.462290000000000312e+00 4.761840000000000295e+00 1.712330000000000041e+01 2.155380000000000074e+00 1.460120000000000084e+00 1.744549999999999912e+01 3.423700000000000077e-01 4.377460000000000129e+00 1.709890000000000043e+01
2.322029999999999816e+00 1.075039999999999996e+00 1.209110000000000085e+01 2.333999999999999964e-01 4.638010000000000410e+00 1.209159999999999968e+01 6.580589999999999939e+00 1.004829999999999890e+00 1.213679999999999914e+01 4.605450000000000266e+00 4.620599999999999596e+00 1.193469999999999942e+01 -3.769299999999999873e+00 6.810550000000000104e+00 1.630229999999999890e+01 -1.826699999999999990e+00 3.787170000000000147e+00 1.580250000000000021e+01 4.517879999999999896e+00 7.779999999999999416e-02 1.554599999999999937e+01 2.473079999999999945e+00 3.139460000000000139e+00 1.595010000000000083e+01 2.083500000000000074e-01 1.659000000000000058e-02 1.061710000000000065e+01 -1.794890000000000096e+00 3.309260000000000090e+00 1.066799999999999926e+01 3.328900000000000192e-01 6.952759999999999607e+00 1.066600000000000037e+01 2.333390000000000075e+00 3.510819999999999830e+00 1.078200000000000003e+01 9.589999999999999913e-02 2.350950000000000095e+00 1.435849999999999937e+01 -1.849869999999999903e+00 5.884590000000000209e+00 1.374080000000000013e+01 4.470640000000000391e+00 2.577290000000000081e+00 1.405840000000000067e+01 2.332530000000000214e+00 5.912630000000000052e+00 1.399789999999999957e+01 7.304050000000000153e+00 1.485989999999999922e+00 1.817210000000000036e+01 5.053779999999999717e+00 2.270770000000000177e+00 1.766369999999999862e+01 -8.485099999999999865e-01 5.393690000000000317e+00 1.738579999999999970e+01 1.682819999999999983e+00 5.250390000000000335e+00 1.767180000000000106e+01
1.830529999999999990e+00 8.191500000000000448e-01 1.181329999999999991e+01 5.602000000000000035e-02 4.326810000000000045e+00 1.203550000000000075e+01 6.039390000000000036e+00 9.553700000000000525e-01 1.186059999999999981e+01 3.987620000000000164e+00 4.443539999999999601e+00 1.240840000000000032e+01 7.317599999999999660e+00 3.420900000000000052e-01 1.612440000000000140e+01 6.165169999999999817e+00 3.502089999999999925e+00 1.514729999999999954e+01 -3.268800000000000039e-01 6.526430000000000398e+00 1.600969999999999871e+01 1.658689999999999998e+00 3.601830000000000087e+00 1.601150000000000162e+01 4.041260000000000296e+00 6.471739999999999604e+00 1.062500000000000000e+01 6.061469999999999914e+00 3.386820000000000164e+00 1.079669999999999952e+01 -4.012999999999999901e-02 6.606169999999999654e+00 1.054039999999999999e+01 2.158069999999999933e+00 3.101230000000000153e+00 1.070809999999999995e+01 -9.815999999999999726e-02 2.177420000000000133e+00 1.399900000000000055e+01 -2.430930000000000035e+00 6.009319999999999773e+00 1.407719999999999949e+01 3.888570000000000082e+00 2.414320000000000022e+00 1.405269999999999975e+01 1.670129999999999892e+00 5.764249999999999652e+00 1.365949999999999953e+01 1.462509999999999977e+00 1.051749999999999963e+00 1.718359999999999843e+01 -9.832999999999999519e-01 4.286579999999999835e+00 1.729050000000000153e+01 4.946159999999999890e+00 8.193300000000000027e-01 1.862030000000000030e+01 5.113209999999999589e+00 3.050679999999999836e+00 1.887349999999999994e+01
2.463150000000000173e+00 1.033400000000000096e+00 1.213000000000000078e+01 5.840400000000000036e-01 4.960580000000000211e+00 1.202960000000000029e+01 6.496859999999999857e+00 1.610780000000000101e+00 1.181559999999999988e+01 4.371019999999999683e+00 5.231250000000000178e+00 1.219040000000000035e+01 3.380000000000000192e-03 4.838700000000000223e-01 1.592769999999999975e+01 6.016099999999999781e+00 3.577589999999999826e+00 1.610269999999999868e+01 3.968599999999999905e+00 1.268799999999999928e-01 1.591549999999999976e+01 2.048690000000000122e+00 3.595889999999999809e+00 1.500109999999999921e+01 4.946699999999999986e-01 2.811799999999999855e-01 1.068890000000000029e+01 -1.912549999999999972e+00 4.158150000000000013e+00 1.075990000000000002e+01 3.536699999999999844e-01 7.376649999999999707e+00 1.084650000000000070e+01 2.378460000000000019e+00 3.574219999999999953e+00 1.071279999999999966e+01 -3.114399999999999946e-01 2.900290000000000035e+00 1.370250000000000057e+01 -2.425879999999999814e+00 6.154110000000000191e+00 1.426340000000000074e+01 4.169889999999999652e+00 2.286639999999999784e+00 1.391039999999999921e+01 2.261130000000000084e+00 6.020299999999999763e+00 1.416740000000000066e+01 1.800529999999999964e+00 5.737490000000000201e+00 1.813530000000000086e+01 4.233389999999999986e+00 6.192260000000000097e+00 1.806609999999999872e+01 -1.425540000000000029e+00 5.322460000000000413e+00 1.815800000000000125e+01 2.055860000000000021e+00 3.263990000000000169e+00 1.739679999999999893e+01