-6.798078628000000379e+01
-6.992808329000000356e+01
-6.893540396999999587e+01
-6.810706577000000550e+01
-6.814663244000000475e+01
-6.869611489999999776e+01
-6.754994231000000582e+01
-6.822524627999999325e+01
-6.795697943000000407e+01
-6.852319239000000550e+01
-6.684337963999999488e+01
-6.953718791000000010e+01
-6.806028200999999456e+01
-6.758074985999999740e+01
-6.714024342000000445e+01
-7.060014015000000143e+01
-6.787225404000000140e+01
-6.795704181000000688e+01
-6.699678382000000454e+01
-6.856568371999999556e+01
-6.739285562000000596e+01
-6.892980393999999933e+01
-6.701376725000000079e+01
-6.703956938999999693e+01
-6.821064968999999678e+01
-6.778678945000000056e+01
-6.917393896000000098e+01
-6.670863654000000054e+01
-6.720654858000000331e+01
-6.686921494999999993e+01
-6.660807151999999576e+01
-6.850229864000000646e+01
-6.653741931000000420e+01
-6.919418611999999769e+01
-6.611862865000000511e+01
-6.866893448000000433e+01
-6.612801740999999822e+01
-6.654416319000000613e+01
-6.890231798000000651e+01
-7.067802254000000062e+01
-6.800873839000000487e+01
-6.871255035000000078e+01
-6.935156897999999615e+01
-6.688390891000000238e+01
-6.874890587999999525e+01
-6.944810922000000630e+01
-6.796071249000000591e+01
-6.710281639000000098e+01
-6.843749355999999295e+01
-6.918000942000000464e+01
-6.741952799000000596e+01
-6.696871824000000117e+01
-6.684279238000000589e+01
-6.721082891000000359e+01
-7.071782269000000554e+01
-6.841153266999999971e+01
-6.835133159000000092e+01
-6.876396873000000198e+01
-6.749852298000000417e+01
-6.725862788000000592e+01
-6.827823990000000265e+01
-6.907527399999999318e+01
-6.760395078999999896e+01
-6.713390766999999926e+01
-6.759760348000000363e+01
-6.883150229999999681e+01
-6.763357480999999893e+01
-6.872887188999999353e+01
-6.601139616000000387e+01
-6.830839136000000167e+01
-6.810513405999999748e+01
-6.767098455999999373e+01
-6.899086766000000637e+01
-6.749456231000000628e+01
-6.693891671999999460e+01
-6.970519022999999947e+01
-6.807985182000000179e+01
-6.860667712000000051e+01
-6.843946730999999772e+01
-6.681671101999999962e+01
-6.636511989000000256e+01
-6.881234456999999338e+01
-6.754477328999999486e+01
-6.780491483999999502e+01
-6.793256048000000646e+01
-6.836611523999999918e+01
-6.735655101000000400e+01
-6.763682457999999542e+01
-6.755137673000000120e+01
-6.855210200000000498e+01
-6.838253871999999944e+01
-6.877565334999999891e+01
-6.762470786000000089e+01
-6.667080380000000162e+01
-6.668613990999999430e+01
-6.815831568999999490e+01
-6.888354019999999878e+01
-6.638610110999999847e+01
-6.659818491999999424e+01
-6.895776578999999629e+01
