-2.404070000000000096e-01 -1.817179999999999906e-01 -7.068590000000000151e-01 -9.034050000000000136e-01 4.291659999999999919e-01 4.535159999999999747e-01 3.052389999999999826e-01 -1.361420000000000130e-01 -3.448720000000000119e-01 -1.342499999999999943e-02 -3.476520000000000166e-01 5.076800000000000063e-02 -2.260099999999999956e-02 1.143285000000000107e+00 1.711310000000000053e-01 8.371859999999999857e-01 -4.766369999999999774e-01 -4.447699999999999987e-01 -5.759500000000000036e-02 1.526830000000000132e-01 1.192638000000000087e+00 -9.353099999999999747e-01 -3.933289999999999842e-01 7.274249999999999883e-01 -1.686499999999999944e-01 5.253240000000000132e-01 7.996399999999999342e-02 -2.112940000000000096e-01 -8.028100000000000513e-02 -2.625279999999999836e-01 -1.916579999999999950e-01 1.343350000000000100e-01 3.020419999999999772e-01 4.637649999999999828e-01 -1.637100000000000014e-02 -2.257959999999999967e-01 3.231080000000000063e-01 5.247429999999999595e-01 -9.369600000000000151e-02 1.008060000000000067e-01 -3.570079999999999920e-01 6.072030000000000483e-01 3.960739999999999816e-01 -3.994650000000000145e-01 1.851579999999999893e-01 4.413279999999999981e-01 1.757630000000000026e-01 -6.276859999999999662e-01 5.248129999999999740e-01 9.394299999999999873e-02 -9.217419999999999503e-01 -4.001910000000000189e-01 -1.885620000000000074e-01 9.585930000000000284e-01 -1.694869999999999988e-01 -1.693270000000000053e-01 -2.506300000000000194e-01 -7.829500000000000348e-02 -4.327480000000000215e-01 -8.498590000000000311e-01
-1.675490000000000035e-01 1.772640000000000049e-01 -3.915759999999999796e-01 1.878170000000000117e-01 7.764300000000000368e-02 -1.016261000000000081e+00 -1.240800000000000063e-02 -1.598289999999999988e-01 -9.885099999999999443e-02 1.263970000000000093e-01 -6.875019999999999465e-01 -1.522281999999999913e+00 -4.568969999999999976e-01 -1.667059999999999931e-01 -1.529149999999999954e-01 -1.403100000000000007e-02 -7.423790000000000111e-01 -2.607800000000000118e-01 -1.546470000000000011e+00 1.237039999999999945e-01 -5.564839999999999787e-01 6.956130000000000368e-01 -3.862389999999999990e-01 -1.813249999999999862e-01 -1.692359999999999975e-01 3.629729999999999901e-01 3.460159999999999902e-01 8.875399999999999956e-02 5.834129999999999594e-01 7.140339999999999465e-01 5.865679999999999783e-01 -1.085471000000000075e+00 -3.540200000000000014e-01 -1.000579999999999942e-01 4.826949999999999852e-01 3.970679999999999765e-01 1.033187000000000078e+00 5.403899999999999676e-02 1.390589999999999882e-01 -6.236019999999999897e-01 2.644929999999999781e-01 8.379560000000000342e-01 -5.177559999999999940e-01 5.206769999999999454e-01 4.656910000000000216e-01 -6.128740000000000299e-01 -7.932300000000000462e-02 6.014399999999999746e-01 -4.020100000000000062e-02 -5.881769999999999499e-01 1.413919999999999899e-01 -1.276319999999999955e-01 9.928339999999999943e-01 2.957069999999999976e-01 4.674519999999999786e-01 4.362289999999999779e-01 -2.323040000000000105e-01 1.202925999999999940e+00 -1.803389999999999993e-01 8.284359999999999502e-01
-1.205940000000000067e-01 8.131599999999999939e-02 -8.415869999999999740e-01 4.195820000000000105e-01 1.003999999999999901e-03 -2.031429999999999902e-01 -3.429700000000000110e-02 2.710830000000000184e-01 -3.994690000000000185e-01 -2.265500000000000153e-02 -5.640000000000000482e-04 -4.105860000000000065e-01 -7.657700000000000617e-02 -1.645149999999999890e+00 -6.627100000000000213e-01 8.046499999999999486e-02 7.372099999999999487e-02 8.930550000000000432e-01 2.473750000000000115e-01 -9.674999999999999573e-03 -9.288299999999999335e-02 1.741290000000000060e-01 1.311930000000000041e-01 1.861720000000000041e-01 -1.115099999999999980e-01 3.184599999999999931e-02 7.438799999999999857e-01 1.191510000000000069e-01 -1.591430000000000067e-01 4.321189999999999753e-01 -8.615499999999999547e-02 -4.061999999999999639e-03 3.892129999999999757e-01 -1.896180000000000088e-01 -3.981859999999999844e-01 3.839400000000000035e-01 -1.025130000000000069e-01 3.327590000000000270e-01 -8.816899999999999737e-02 -4.871050000000000102e-01 -9.475000000000000783e-03 3.791780000000000150e-01 1.022379999999999955e-01 -3.151309999999999945e-01 -3.398950000000000027e-01 8.759999999999999731e-02 4.713499999999999912e-01 5.052079999999999904e-01 4.019849999999999812e-01 4.316699999999999704e-02 -7.897030000000000438e-01 -4.644240000000000035e-01 1.067552999999999974e+00 2.776810000000000112e-01 6.507680000000000131e-01 -5.692469999999999475e-01 1.845100000000000073e-01 -5.878430000000000044e-01 6.056420000000000137e-01 -5.468089999999999895e-01
2.077579999999999982e-01 6.762600000000000555e-02 -1.084580000000000100e+00 -1.683679999999999899e-01 6.919030000000000458e-01 6.497509999999999675e-01 -3.680320000000000258e-01 -1.464020000000000044e-01 2.702649999999999775e-01 1.520299999999999985e-01 -2.530819999999999736e-01 -6.386209999999999942e-01 4.884140000000000148e-01 -1.013280000000000014e-01 2.745790000000000175e-01 3.905420000000000003e-01 1.217299999999999979e-02 5.015819999999999723e-01 -9.025769999999999627e-01 -8.053829999999999600e-01 4.439750000000000085e-01 -4.145380000000000176e-01 1.593249999999999944e-01 4.244709999999999872e-01 8.350200000000000677e-02 2.236809999999999909e-01 -5.061100000000000321e-02 -4.785349999999999882e-01 5.336459999999999537e-01 -9.811799999999999689e-02 4.313049999999999939e-01 -3.860609999999999875e-01 8.910059999999999647e-01 4.579119999999999857e-01 -2.530830000000000024e-01 -4.773000000000000159e-02 -1.805819999999999925e-01 -1.015210000000000001e-01 -5.085830000000000073e-01 2.497159999999999935e-01 5.260359999999999481e-01 8.673669999999999991e-01 2.243000000000000202e-03 1.331110000000000071e-01 2.673510000000000053e-01 -5.575299999999999701e-02 -7.962879999999999958e-01 -1.100667000000000062e+00 1.162519999999999942e-01 5.623800000000000326e-02 -3.808759999999999923e-01 -5.964639999999999942e-01 2.322639999999999982e-01 -1.492920000000000080e-01 7.642299999999999649e-01 -1.906100000000000017e-01 -4.324100000000000166e-01 -1.790539999999999909e-01 3.977539999999999965e-01 -9.885700000000000043e-02
6.424149999999999583e-01 -3.343920000000000226e-01 4.441699999999999815e-02 2.382199999999999943e-02 1.085869999999999891e+00 3.946060000000000123e-01 -5.793660000000000476e-01 -4.591999999999999971e-01 7.120549999999999935e-01 8.273400000000000198e-02 -4.581999999999999962e-01 5.860400000000000331e-02 5.325900000000000079e-01 -3.918260000000000076e-01 -2.002210000000000101e-01 3.158299999999999996e-01 1.550660000000000094e-01 3.149259999999999837e-01 -1.397488999999999981e+00 -1.784810000000000008e-01 7.628939999999999610e-01 4.803799999999999737e-02 9.817299999999999638e-02 1.160270000000000051e-01 2.397720000000000129e-01 -6.269900000000000473e-02 -2.120279999999999943e-01 -3.092579999999999774e-01 2.423619999999999941e-01 -4.190889999999999893e-01 9.795600000000000140e-02 -1.318809999999999982e-01 1.947639999999999927e-01 2.141319999999999890e-01 3.237199999999999800e-02 -5.575299999999999701e-01 -1.958500000000000171e-02 -4.506479999999999930e-01 -1.469499999999999973e-01 8.047700000000000686e-02 2.344380000000000075e-01 4.144899999999999973e-02 1.982400000000000134e-02 1.019805999999999990e+00 5.212620000000000031e-01 6.659169999999999812e-01 -7.384540000000000548e-01 -9.682870000000000088e-01 1.992400000000000074e-02 6.032610000000000472e-01 -3.280799999999999689e-02 -4.804539999999999922e-01 -3.451200000000000101e-02 4.962079999999999824e-01 -7.195000000000000007e-02 3.096220000000000083e-01 -6.587840000000000362e-01 -1.253289999999999960e-01 -5.406769999999999632e-01 -4.615159999999999818e-01
1.807500000000000079e-02 8.070800000000000196e-02 -8.265120000000000244e-01 -2.716509999999999758e-01 1.169850000000000056e-01 -1.492199999999999950e-02 1.002849999999999991e-01 3.780330000000000079e-01 -5.785420000000000007e-01 4.441919999999999757e-01 3.347459999999999880e-01 -2.333780000000000021e-01 -8.750900000000000345e-02 6.373399999999999899e-02 1.568410000000000082e-01 2.596689999999999832e-01 4.852179999999999827e-01 4.683680000000000065e-01 5.965000000000000302e-01 -1.076619999999999938e-01 -1.417826999999999948e+00 -8.194649999999999990e-01 6.176089999999999636e-01 5.488340000000000440e-01 2.179750000000000021e-01 -3.899389999999999801e-01 5.154379999999999518e-01 -1.991580000000000017e-01 -1.926660000000000039e-01 6.454149999999999610e-01 4.866999999999999799e-03 -5.376500000000000029e-02 3.655919999999999725e-01 5.014799999999999813e-02 -3.577770000000000117e-01 9.192200000000000371e-02 -3.447549999999999781e-01 2.748110000000000275e-01 1.026220000000000049e-01 2.217439999999999967e-01 -6.707419999999999494e-01 -5.028960000000000097e-01 6.081149999999999611e-01 -8.041690000000000227e-01 -2.172570000000000057e-01 -5.393780000000000241e-01 -2.706000000000000072e-02 -1.056509999999999949e-01 -9.490899999999999337e-02 5.914400000000000213e-02 -4.070590000000000042e-01 -3.264119999999999799e-01 2.404900000000000093e-01 -2.253660000000000108e-01 -1.120099999999999915e-02 1.947099999999999942e-01 1.410806000000000004e+00 1.728669999999999929e-01 -2.424070000000000114e-01 2.235729999999999940e-01
-1.845960000000000101e-01 -2.182759999999999978e-01 -2.165030000000000010e-01 -4.324720000000000231e-01 6.876710000000000322e-01 -2.348250000000000060e-01 -1.644799999999999873e-01 -3.959690000000000154e-01 -1.068329999999999974e-01 -3.360480000000000134e-01 6.743249999999999522e-01 2.620120000000000227e-01 4.869580000000000020e-01 4.847300000000000220e-02 -2.943939999999999890e-01 4.126330000000000275e-01 -6.123709999999999987e-01 1.095828000000000024e+00 -1.294799999999999944e-02 -3.635550000000000170e-01 -1.203580000000000066e-01 1.140498999999999929e+00 -5.872150000000000425e-01 -2.066669999999999896e-01 -3.352749999999999897e-01 4.434190000000000076e-01 5.893490000000000117e-01 1.304043000000000063e+00 -4.860699999999999743e-02 -6.646349999999999758e-01 2.348520000000000052e-01 3.200000000000000153e-03 3.844520000000000159e-01 -3.019430000000000169e-01 -3.510099999999999887e-01 -3.169480000000000075e-01 -1.728760000000000019e-01 2.815799999999999900e-02 3.914600000000000024e-02 -9.103400000000000380e-02 7.120799999999999352e-02 -8.176999999999999824e-01 3.802769999999999762e-01 -2.013610000000000122e-01 -1.453499999999999931e-02 -5.623200000000000420e-01 6.219600000000000128e-02 -1.703139999999999932e-01 2.787140000000000173e-01 1.300469999999999959e-01 2.472340000000000093e-01 -1.932635000000000103e+00 -6.897999999999999687e-01 -4.292699999999999988e-02 1.313590000000000035e-01 3.531270000000000242e-01 1.224630000000000024e-01 1.572909999999999864e-01 9.663410000000000055e-01 4.661549999999999860e-01
-6.148850000000000149e-01 -3.578200000000000131e-02 -7.227329999999999588e-01 5.269120000000000470e-01 4.228709999999999969e-01 4.423469999999999902e-01 -4.600819999999999910e-01 -4.646589999999999887e-01 -3.698580000000000201e-01 -6.678499999999999714e-02 3.800720000000000209e-01 4.065670000000000117e-01 1.624319999999999931e-01 -4.528510000000000035e-01 -3.348149999999999737e-01 -2.958250000000000046e-01 8.871740000000000181e-01 6.295049999999999812e-01 -2.972879999999999967e-01 -3.011300000000000088e-01 2.560230000000000006e-01 -9.596240000000000325e-01 1.114076000000000066e+00 8.552929999999999700e-01 1.538999999999999917e-02 -2.964030000000000276e-01 2.929039999999999977e-01 -2.925940000000000207e-01 -3.555920000000000192e-01 -6.375009999999999843e-01 6.133290000000000131e-01 2.125499999999999959e-02 -8.222999999999999754e-02 -1.938970000000000138e-01 4.641000000000000160e-03 -3.268019999999999814e-01 2.892649999999999944e-01 -1.524339999999999862e-01 -3.575769999999999782e-01 -7.033110000000000195e-01 5.311799999999999855e-01 3.337970000000000104e-01 7.229799999999999560e-01 -2.380420000000000036e-01 2.245719999999999938e-01 6.702639999999999709e-01 -8.293999999999999290e-03 1.234480000000000022e-01 4.101589999999999958e-01 -7.830700000000000438e-01 1.678060000000000107e-01 -1.966970000000000107e-01 -8.974239999999999995e-01 -7.113400000000000278e-02 -1.207450000000000051e-01 5.364379999999999704e-01 -2.075879999999999947e-01 7.910009999999999541e-01 8.797399999999999665e-02 -6.220240000000000213e-01
8.063540000000000152e-01 3.340949999999999753e-01 4.187500000000000250e-02 4.294830000000000036e-01 -1.127419999999999950e-01 -3.522649999999999948e-01 -1.298923000000000050e+00 1.884100000000000011e-02 7.866539999999999644e-01 -4.856110000000000149e-01 -7.250299999999999800e-02 -1.556130000000000013e-01 -2.557900000000000104e-02 -6.858889999999999709e-01 8.122930000000000428e-01 -2.055539999999999867e-01 4.576640000000000152e-01 3.862499999999999822e-01 -3.518089999999999828e-01 2.852400000000000074e-02 -6.369639999999999747e-01 5.903300000000000214e-01 5.308479999999999865e-01 2.235499999999999987e-01 5.230920000000000014e-01 -9.475679999999999659e-01 -8.980179999999999829e-01 2.094179999999999930e-01 4.604309999999999792e-01 -4.381240000000000134e-01 -7.739200000000000246e-02 4.662800000000000278e-02 3.246160000000000156e-01 -3.045329999999999981e-01 -6.074700000000000238e-02 3.439440000000000275e-01 -1.370169999999999999e-01 3.040579999999999949e-01 -7.134390000000000454e-01 7.047229999999999883e-01 -3.821919999999999762e-01 5.016429999999999501e-01 1.342109999999999970e-01 3.913010000000000099e-01 1.155830000000000052e-01 -1.152230000000000060e-01 3.409199999999999731e-02 -3.089000000000000079e-02 -2.794340000000000157e-01 -1.718989999999999962e-01 -7.560660000000000158e-01 6.129600000000000326e-02 -1.339199999999999939e-02 -2.982330000000000259e-01 1.469380000000000130e-01 6.014450000000000074e-01 5.575379999999999781e-01 -3.247709999999999764e-01 -7.609939999999999483e-01 1.856669999999999987e-01
2.301660000000000095e-01 3.902100000000000013e-02 2.402620000000000033e-01 -6.142840000000000522e-01 -2.973379999999999912e-01 6.442699999999999816e-02 -2.704790000000000250e-01 5.252740000000000187e-01 -1.422279999999999933e-01 4.606720000000000259e-01 -4.438099999999999684e-02 3.375330000000000275e-01 7.142400000000000138e-02 -3.185990000000000211e-01 6.719899999999999485e-02 -7.272499999999999798e-02 8.676930000000000476e-01 4.816019999999999746e-01 -7.593440000000000190e-01 5.116119999999999557e-01 -1.248609999999999998e-01 1.039295000000000080e+00 1.177350000000000063e-01 6.169000000000000004e-03 -4.633140000000000036e-01 1.211239999999999956e-01 -1.557719999999999938e-01 1.789830000000000032e-01 -2.446730000000000016e-01 3.844890000000000252e-01 3.328699999999999992e-01 3.938650000000000206e-01 -3.187320000000000153e-01 -2.186069999999999958e-01 2.901329999999999742e-01 8.081699999999999995e-02 1.778959999999999986e-01 -2.102229999999999932e-01 -2.802810000000000024e-01 2.415990000000000082e-01 -3.428390000000000049e-01 2.528639999999999777e-01 -2.907440000000000024e-01 -1.233786000000000049e+00 -9.241780000000000550e-01 -2.148140000000000049e-01 -1.519479999999999997e-01 -2.973029999999999839e-01 -2.964049999999999740e-01 3.033629999999999938e-01 5.887499999999999678e-02 -6.373229999999999729e-01 -2.436439999999999995e-01 5.510720000000000063e-01 4.820090000000000208e-01 1.826309999999999878e-01 -2.979260000000000241e-01 6.231250000000000400e-01 -2.650170000000000026e-01 1.597200000000000009e-02
-3.094569999999999821e-01 -2.761649999999999938e-01 -3.029680000000000151e-01 5.490840000000000165e-01 1.209640000000000021e-01 -7.416880000000000139e-01 3.645180000000000087e-01 1.466699999999999948e-01 -3.767800000000000038e-01 2.047769999999999868e-01 9.535000000000000073e-03 -3.724190000000000000e-01 -1.404900000000000072e-02 -2.404189999999999938e-01 7.682080000000000020e-01 -4.777359999999999940e-01 -3.964130000000000154e-01 5.177829999999999933e-01 1.214549000000000101e+00 4.833140000000000214e-01 2.791589999999999905e-01 1.176770000000000038e-01 5.678220000000000489e-01 1.118711999999999929e+00 -4.798600000000000088e-02 -4.377059999999999840e-01 4.505879999999999885e-01 3.217269999999999852e-01 3.306879999999999820e-01 7.824410000000000531e-01 -3.067050000000000054e-01 7.321999999999999342e-02 1.977399999999999991e-02 -4.049050000000000149e-01 1.124639999999999945e-01 -1.563900000000000012e-02 -2.030069999999999930e-01 3.575180000000000025e-01 -5.205300000000000482e-01 -3.515980000000000216e-01 -2.777919999999999834e-01 -1.117274000000000100e+00 1.379460000000000131e-01 -6.473940000000000250e-01 -1.935830000000000051e-01 -4.511020000000000030e-01 2.768430000000000057e-01 1.616160000000000097e-01 -4.696399999999999880e-02 -7.001870000000000038e-01 1.775249999999999884e-01 -1.324410000000000032e-01 5.717489999999999517e-01 -1.760809999999999875e-01 -1.142598000000000003e+00 5.715230000000000032e-01 2.069840000000000013e-01 9.782690000000000552e-01 -6.462350000000000039e-01 -6.658279999999999754e-01
-1.647810000000000108e-01 3.785669999999999868e-01 -3.230219999999999758e-01 4.189609999999999723e-01 -2.277530000000000110e-01 9.176459999999999617e-01 2.295959999999999945e-01 -2.465950000000000086e-01 1.092920000000000003e-01 -8.687139999999999862e-01 -2.585430000000000228e-01 -4.445370000000000155e-01 -4.564900000000000208e-02 -5.678130000000000122e-01 1.099712000000000023e+00 -3.104580000000000117e-01 2.917060000000000208e-01 -3.597069999999999990e-01 -6.357359999999999678e-01 3.044720000000000204e-01 3.315690000000000026e-01 4.089700000000000002e-01 -5.444259999999999655e-01 3.834460000000000091e-01 -2.341719999999999913e-01 1.183108999999999966e+00 4.621800000000000214e-02 2.067009999999999958e-01 -5.182120000000000060e-01 -7.513589999999999991e-01 2.706210000000000004e-01 1.853779999999999872e-01 -4.171190000000000175e-01 7.141610000000000458e-01 -8.511079999999999757e-01 1.219439999999999968e-01 1.998020000000000074e-01 1.059468000000000076e+00 -4.120260000000000034e-01 -3.729359999999999897e-01 -1.839939999999999909e-01 -2.682280000000000220e-01 -3.289290000000000269e-01 3.152900000000000147e-01 7.607690000000000285e-01 -4.313399999999999873e-02 -6.689580000000000526e-01 9.551999999999999380e-02 -4.302899999999999781e-02 6.424530000000000518e-01 -9.167149999999999466e-01 6.856769999999999810e-01 -1.070480000000000043e-01 -4.077549999999999786e-01 -2.208819999999999950e-01 4.866499999999999992e-02 1.523079999999999989e-01 1.339319999999999955e-01 -2.346580000000000055e-01 2.820409999999999862e-01
1.906279999999999919e-01 -3.516870000000000274e-01 5.900400000000000089e-01 3.606770000000000254e-01 7.906170000000000142e-01 -4.741060000000000274e-01 3.595500000000000085e-02 -3.550610000000000155e-01 -3.105589999999999740e-01 -4.768640000000000101e-01 6.270909999999999540e-01 -1.074299999999999977e-01 -5.928300000000000236e-02 -5.297260000000000302e-01 -6.151029999999999553e-01 -3.974369999999999847e-01 -1.521093000000000028e+00 -5.180740000000000345e-01 -2.654000000000000109e-03 5.717099999999999960e-02 -7.418099999999999694e-02 1.073093999999999992e+00 -1.214670000000000055e-01 -3.108279999999999932e-01 -5.797639999999999461e-01 -6.005260000000000042e-01 2.701140000000000208e-01 -1.231440000000000035e-01 -5.549950000000000161e-01 2.518340000000000023e-01 6.376260000000000261e-01 2.206400000000000028e-02 -4.479429999999999801e-01 1.566879999999999939e-01 2.956730000000000191e-01 -5.788999999999999875e-03 -2.533099999999999796e-01 -2.834149999999999725e-01 4.100039999999999796e-01 -6.642249999999999543e-01 3.418399999999999772e-01 1.120889999999999942e-01 2.485259999999999969e-01 -1.626180000000000125e-01 -2.887400000000000036e-02 -5.067880000000000162e-01 1.913719999999999866e-01 -2.048389999999999933e-01 -3.054009999999999780e-01 1.289659999999999973e-01 8.239570000000000505e-01 -7.988999999999999574e-03 -2.809909999999999908e-01 9.903999999999999609e-03 6.475999999999999535e-01 8.885039999999999605e-01 3.086690000000000267e-01 2.606500000000000136e-02 1.418282000000000043e+00 3.211109999999999798e-01
-1.761350000000000138e-01 6.710299999999999598e-02 -2.267089999999999939e-01 -2.712910000000000044e-01 -7.731789999999999496e-01 -4.555000000000000021e-02 1.846679999999999988e-01 2.422729999999999884e-01 -1.354360000000000008e-01 2.438460000000000072e-01 -3.876439999999999886e-01 -5.083830000000000293e-01 -2.237600000000000006e-02 -7.537239999999999496e-01 -2.505419999999999869e-01 -3.590579999999999883e-01 -2.342599999999999891e-02 1.556770000000000098e-01 -2.834659999999999958e-01 -4.661200000000000065e-02 4.824430000000000107e-01 3.141399999999999748e-01 2.983720000000000261e-01 2.400380000000000014e-01 -3.160799999999999721e-02 -8.951299999999999535e-02 1.158150000000000013e-01 6.096999999999999989e-03 3.871260000000000256e-01 7.034100000000000075e-02 -2.872739999999999738e-01 2.173549999999999927e-01 1.884899999999999909e-01 -1.623499999999999943e-02 3.304369999999999807e-01 1.271440000000000070e-01 5.104729999999999546e-01 2.534499999999999947e-02 6.230010000000000270e-01 5.218890000000000473e-01 1.161750000000000005e-01 3.741670000000000273e-01 3.510200000000000126e-02 -1.326400000000000079e-01 -7.938199999999999423e-02 -5.407910000000000217e-01 -2.580700000000000008e-02 3.172180000000000000e-01 -5.910659999999999803e-01 6.546640000000000237e-01 -4.894990000000000174e-01 1.176800000000000068e-02 7.736250000000000071e-01 -1.259109999999999951e-01 9.396790000000000420e-01 -7.460970000000000102e-01 -4.011580000000000146e-01 -1.883630000000000027e-01 -1.338330000000000075e-01 -4.317639999999999811e-01
7.510580000000000034e-01 1.011061999999999905e+00 -2.367799999999999905e-01 3.453530000000000211e-01 3.141869999999999941e-01 1.934670000000000001e-01 -1.763830000000000120e-01 4.715489999999999959e-01 -4.473799999999999999e-02 1.458089999999999942e-01 4.020310000000000272e-01 -8.741839999999999611e-01 1.427299999999999958e-01 2.094250000000000000e-01 1.280650000000000122e-01 -1.696920000000000095e-01 1.029120000000000035e-01 5.032780000000000031e-01 1.971269999999999967e-01 -9.739200000000000634e-02 -2.263910000000000089e-01 -5.157709999999999795e-01 7.314650000000000318e-01 -1.068559000000000037e+00 -3.032130000000000103e-01 -5.803500000000000325e-01 -3.510999999999999798e-03 -4.757100000000000217e-01 -1.726449999999999929e-01 1.488279999999999881e-01 -7.085209999999999564e-01 -3.811089999999999756e-01 6.946299999999999697e-02 3.696459999999999746e-01 -7.444920000000000426e-01 -5.595189999999999886e-01 -1.715579999999999883e-01 1.779930000000000123e-01 6.381109999999999838e-01 3.303530000000000078e-01 -3.640669999999999740e-01 3.824009999999999909e-01 2.791969999999999730e-01 -1.891819999999999891e-01 8.734979999999999967e-01 -2.821730000000000071e-01 1.528629999999999989e-01 9.269800000000000262e-02 3.456020000000000203e-01 -5.912389999999999590e-01 -6.498969999999999470e-01 -2.043521000000000143e+00 7.083409999999999984e-01 1.855199999999999905e-02 1.406317999999999957e+00 -1.199211999999999945e+00 1.716479999999999950e-01 5.333499999999999908e-01 3.786099999999999882e-02 4.435700000000000198e-01
-1.352659999999999973e-01 -1.979380000000000028e-01 -4.473670000000000146e-01 -4.175960000000000227e-01 4.387460000000000249e-01 -2.316779999999999951e-01 -1.826869999999999883e-01 -1.641113999999999962e+00 -3.187500000000000056e-02 -4.790840000000000098e-01 9.226710000000000189e-01 -1.601039999999999963e-01 2.890809999999999769e-01 -6.030300000000000243e-02 2.758439999999999781e-01 -3.668089999999999962e-01 3.137099999999999889e-01 3.277030000000000221e-01 6.406789999999999985e-01 1.478868999999999989e+00 -4.463050000000000073e-01 1.202399999999999997e-02 1.036119999999999958e-01 -2.986800000000000010e-01 -1.409189999999999887e-01 2.492389999999999883e-01 2.262389999999999957e-01 3.132800000000000168e-02 6.503010000000000179e-01 -5.509779999999999678e-01 7.616249999999999964e-01 -1.810600000000000057e-02 1.776800000000000046e-01 3.088099999999999873e-02 1.036200000000000038e-01 -8.161000000000000199e-02 -1.412629999999999997e-01 -6.199639999999999596e-01 -1.781619999999999870e-01 -3.264790000000000192e-01 -2.012259999999999882e-01 4.400129999999999875e-01 4.632370000000000099e-01 -2.876610000000000000e-01 -3.063409999999999744e-01 6.862169999999999659e-01 5.872000000000000552e-01 1.293330000000000035e-01 -9.410340000000000371e-01 -6.071339999999999515e-01 7.806799999999999851e-02 6.055690000000000239e-01 1.294220000000000093e-01 7.556599999999999429e-02 -1.159130000000000021e-01 -7.906959999999999544e-01 3.172099999999999920e-01 -2.735909999999999731e-01 -5.532489999999999908e-01 6.854470000000000285e-01
1.867050000000000098e-01 1.778220000000000078e-01 -8.644859999999999767e-01 -1.905620000000000092e-01 6.349000000000000477e-02 -2.585319999999999840e-01 -2.999629999999999797e-01 -2.866900000000000004e-02 -4.605969999999999787e-01 3.804300000000000043e-02 -1.449050000000000060e-01 -3.343749999999999778e-01 -2.951929999999999832e-01 1.471959999999999935e-01 -2.886000000000000024e-02 -6.875909999999999522e-01 -1.747991999999999990e+00 -1.277209000000000039e+00 1.144500000000000031e-02 2.323770000000000002e-01 4.270820000000000172e-01 -5.410800000000000054e-01 -3.295300000000000312e-02 1.330210000000000004e-01 -4.169400000000000189e-02 -2.344100000000000003e-02 5.624419999999999975e-01 1.322939999999999949e-01 9.132300000000000140e-02 5.182750000000000412e-01 1.835009999999999974e-01 1.520279999999999965e-01 5.192170000000000396e-01 -8.023000000000000617e-03 -2.705960000000000032e-01 5.539330000000000087e-01 -7.359300000000000563e-02 3.819549999999999890e-01 1.870469999999999910e-01 3.364860000000000073e-01 -2.546999999999999958e-02 2.136290000000000133e-01 1.026910000000000045e-01 -3.797899999999999887e-02 -5.355090000000000128e-01 7.237599999999999589e-02 2.104370000000000129e-01 5.484200000000000186e-02 -1.197539999999999993e-01 1.029940000000000022e-01 8.682600000000000040e-02 5.207800000000000207e-01 -6.018029999999999768e-01 -5.024359999999999937e-01 1.010774000000000061e+00 1.293315999999999910e+00 1.158328999999999942e+00 -3.376419999999999977e-01 6.087100000000000150e-02 -1.526389999999999969e-01
1.463240000000000096e-01 -9.371199999999999530e-01 -4.160749999999999726e-01 -1.737980000000000080e-01 -1.366769999999999929e-01 -8.108400000000000052e-01 -1.981870000000000021e-01 -3.058060000000000223e-01 -4.040520000000000223e-01 7.196400000000000019e-02 2.438919999999999977e-01 -8.613960000000000505e-01 2.405079999999999996e-01 -2.329529999999999934e-01 2.692990000000000106e-01 -5.545820000000000194e-01 -1.333670000000000133e-01 -7.602430000000000021e-01 -4.270570000000000199e-01 1.089002999999999943e+00 2.010210000000000052e-01 5.560400000000000065e-02 -6.295250000000000012e-01 1.557199999999999973e-01 4.876000000000000126e-03 4.526089999999999836e-01 2.970430000000000015e-01 2.412990000000000135e-01 -1.380579999999999863e-01 4.654099999999999904e-01 -1.870070000000000066e-01 2.134379999999999888e-01 2.495759999999999923e-01 -3.905460000000000043e-01 5.263849999999999918e-01 2.422179999999999889e-01 -1.865769999999999929e-01 4.104840000000000155e-01 -2.730049999999999977e-01 -5.064599999999999658e-02 -2.390780000000000127e-01 -1.281680000000000041e-01 6.697929999999999717e-01 -7.399899999999999534e-02 9.464209999999999567e-01 1.574200000000000044e-01 3.247940000000000271e-01 7.709789999999999699e-01 3.538299999999999779e-01 1.563470000000000137e-01 4.497600000000000209e-02 9.227000000000000479e-02 -5.534609999999999808e-01 8.047720000000000429e-01 2.483509999999999884e-01 -1.503799999999999928e-02 -5.585059999999999469e-01 -1.138389999999999957e-01 -2.186899999999999955e-02 -2.351499999999999979e-01
6.715299999999999603e-01 5.329690000000000261e-01 1.534880000000000133e-01 -4.615270000000000206e-01 -1.361989999999999867e-01 -3.615929999999999978e-01 -2.129299999999999943e-02 9.463000000000000578e-02 -8.737650000000000139e-01 -8.434500000000000330e-01 -8.255600000000000438e-02 -5.074250000000000149e-01 -2.533099999999999935e-02 -2.467060000000000086e-01 -7.377499999999999336e-02 -1.744899999999999923e-02 8.950600000000000223e-02 3.978999999999999898e-03 5.720700000000000091e-02 -3.940520000000000134e-01 2.755699999999999816e-01 2.447850000000000026e-01 -5.076800000000000063e-02 -1.227538000000000018e+00 -7.592229999999999812e-01 -6.061050000000000049e-01 1.348900000000000099e-01 7.145160000000000400e-01 -5.608450000000000379e-01 -3.919770000000000199e-01 -2.971000000000000030e-02 1.648660000000000125e-01 6.616900000000000559e-02 4.427740000000000009e-01 4.603550000000000142e-01 5.362620000000000164e-01 7.396530000000000049e-01 3.989130000000000176e-01 9.989149999999999974e-01 5.795709999999999473e-01 5.887360000000000371e-01 2.995840000000000169e-01 -5.252869999999999484e-01 9.977800000000000558e-02 -2.990400000000000003e-02 -6.796649999999999636e-01 1.068240000000000023e-01 -4.503110000000000168e-01 -2.104719999999999924e-01 -1.265117999999999965e+00 -1.200660000000000061e-01 6.965379999999999905e-01 3.314790000000000236e-01 -3.360400000000000192e-02 -2.711569999999999814e-01 1.008649999999999963e-01 -9.175200000000000022e-02 -3.020079999999999987e-01 3.734270000000000089e-01 1.692854000000000081e+00