7.938740000000000130e+00 0.000000000000000000e+00 0.000000000000000000e+00 -3.969370000000000065e+00 6.875150999999999790e+00 0.000000000000000000e+00 0.000000000000000000e+00 0.000000000000000000e+00 2.000000000000000000e+01
8.345180842999999626e+00 0.000000000000000000e+00 0.000000000000000000e+00 -4.139086597999999562e+00 7.169108791000000203e+00 0.000000000000000000e+00 0.000000000000000000e+00 0.000000000000000000e+00 2.000000000000000000e+01
8.374368166000000002e+00 0.000000000000000000e+00 0.000000000000000000e+00 -4.268239590000000305e+00 7.392808351000000222e+00 0.000000000000000000e+00 0.000000000000000000e+00 0.000000000000000000e+00 2.000000000000000000e+01
8.174620575000000500e+00 0.000000000000000000e+00 0.000000000000000000e+00 -4.302680707000000382e+00 7.452462118999999774e+00 0.000000000000000000e+00 0.000000000000000000e+00 0.000000000000000000e+00 2.000000000000000000e+01
8.309241945000000129e+00 0.000000000000000000e+00 0.000000000000000000e+00 -4.315072855000000374e+00 7.473925952000000095e+00 0.000000000000000000e+00 0.000000000000000000e+00 0.000000000000000000e+00 2.000000000000000000e+01
7.996974008999999661e+00 0.000000000000000000e+00 0.000000000000000000e+00 -4.340200550999999685e+00 7.517448401000000224e+00 0.000000000000000000e+00 0.000000000000000000e+00 0.000000000000000000e+00 2.000000000000000000e+01
7.938740000000000130e+00 0.000000000000000000e+00 0.000000000000000000e+00 -3.969370000000000065e+00 6.875150999999999790e+00 0.000000000000000000e+00 0.000000000000000000e+00 0.000000000000000000e+00 2.000000000000000000e+01
8.394186759000000109e+00 0.000000000000000000e+00 0.000000000000000000e+00 -4.141157047000000091e+00 7.172694915000000115e+00 0.000000000000000000e+00 0.000000000000000000e+00 0.000000000000000000e+00 2.000000000000000000e+01
8.616025135999999307e+00 0.000000000000000000e+00 0.000000000000000000e+00 -4.275143353999999896e+00 7.404766022999999642e+00 0.000000000000000000e+00 0.000000000000000000e+00 0.000000000000000000e+00 2.000000000000000000e+01
7.938740000000000130e+00 0.000000000000000000e+00 0.000000000000000000e+00 -3.969370000000000065e+00 6.875150999999999790e+00 0.000000000000000000e+00 0.000000000000000000e+00 0.000000000000000000e+00 2.000000000000000000e+01
8.374779354999999370e+00 0.000000000000000000e+00 0.000000000000000000e+00 -4.215726870000000126e+00 7.301853645999999642e+00 0.000000000000000000e+00 0.000000000000000000e+00 0.000000000000000000e+00 2.000000000000000000e+01
8.424917226999999897e+00 0.000000000000000000e+00 0.000000000000000000e+00 -4.302702550000000237e+00 7.452499953000000232e+00 0.000000000000000000e+00 0.000000000000000000e+00 0.000000000000000000e+00 2.000000000000000000e+01
8.233033658000000088e+00 0.000000000000000000e+00 0.000000000000000000e+00 -4.308509803999999832e+00 7.462558413000000002e+00 0.000000000000000000e+00 0.000000000000000000e+00 0.000000000000000000e+00 2.000000000000000000e+01
8.203133241999999825e+00 0.000000000000000000e+00 0.000000000000000000e+00 -4.505561390999999638e+00 7.803861797999999794e+00 0.000000000000000000e+00 0.000000000000000000e+00 0.000000000000000000e+00 2.000000000000000000e+01
7.938740000000000130e+00 0.000000000000000000e+00 0.000000000000000000e+00 -3.969370000000000065e+00 6.875150999999999790e+00 0.000000000000000000e+00 0.000000000000000000e+00 0.000000000000000000e+00 2.000000000000000000e+01
8.519184945999999314e+00 0.000000000000000000e+00 0.000000000000000000e+00 -4.105246754999999581e+00 7.110496459000000158e+00 0.000000000000000000e+00 0.000000000000000000e+00 0.000000000000000000e+00 2.000000000000000000e+01
8.670355565999999570e+00 0.000000000000000000e+00 0.000000000000000000e+00 -4.199884114999999696e+00 7.274413187999999586e+00 0.000000000000000000e+00 0.000000000000000000e+00 0.000000000000000000e+00 2.000000000000000000e+01
8.367070379999999474e+00 0.000000000000000000e+00 0.000000000000000000e+00 -4.286824099999999582e+00 7.424997668999999689e+00 0.000000000000000000e+00 0.000000000000000000e+00 0.000000000000000000e+00 2.000000000000000000e+01
8.304349410000000375e+00 0.000000000000000000e+00 0.000000000000000000e+00 -4.141574724999999901e+00 7.173418354999999913e+00 0.000000000000000000e+00 0.000000000000000000e+00 0.000000000000000000e+00 2.000000000000000000e+01
8.839427519999999205e+00 0.000000000000000000e+00 0.000000000000000000e+00 -4.035731342000000055e+00 6.990092223000000438e+00 0.000000000000000000e+00 0.000000000000000000e+00 0.000000000000000000e+00 2.000000000000000000e+01
8.026246723999999944e+00 0.000000000000000000e+00 0.000000000000000000e+00 -4.394955575000000003e+00 7.612286890000000028e+00 0.000000000000000000e+00 0.000000000000000000e+00 0.000000000000000000e+00 2.000000000000000000e+01
8.078113248999999385e+00 0.000000000000000000e+00 0.000000000000000000e+00 -4.168334566000000407e+00 7.219767762000000033e+00 0.000000000000000000e+00 0.000000000000000000e+00 0.000000000000000000e+00 2.000000000000000000e+01
8.275104787000000073e+00 0.000000000000000000e+00 0.000000000000000000e+00 -4.261442815999999745e+00 7.381035993000000239e+00 0.000000000000000000e+00 0.000000000000000000e+00 0.000000000000000000e+00 2.000000000000000000e+01
7.938740000000000130e+00 0.000000000000000000e+00 0.000000000000000000e+00 -3.969370000000000065e+00 6.875150999999999790e+00 0.000000000000000000e+00 0.000000000000000000e+00 0.000000000000000000e+00 2.000000000000000000e+01
8.898536850999999359e+00 0.000000000000000000e+00 0.000000000000000000e+00 -4.049334317999999655e+00 7.013653270999999911e+00 0.000000000000000000e+00 0.000000000000000000e+00 0.000000000000000000e+00 2.000000000000000000e+01
8.903114926000000651e+00 0.000000000000000000e+00 0.000000000000000000e+00 -4.030538443000000193e+00 6.981097858000000045e+00 0.000000000000000000e+00 0.000000000000000000e+00 0.000000000000000000e+00 2.000000000000000000e+01
8.364130412999999820e+00 0.000000000000000000e+00 0.000000000000000000e+00 -4.209945707000000148e+00 7.291840375999999679e+00 0.000000000000000000e+00 0.000000000000000000e+00 0.000000000000000000e+00 2.000000000000000000e+01
8.793599075999999570e+00 0.000000000000000000e+00 0.000000000000000000e+00 -4.197743653999999935e+00 7.270705799999999996e+00 0.000000000000000000e+00 0.000000000000000000e+00 0.000000000000000000e+00 2.000000000000000000e+01
8.374343860999999833e+00 0.000000000000000000e+00 0.000000000000000000e+00 -4.413042154000000217e+00 7.643613766999999726e+00 0.000000000000000000e+00 0.000000000000000000e+00 0.000000000000000000e+00 2.000000000000000000e+01
8.292115841999999404e+00 0.000000000000000000e+00 0.000000000000000000e+00 -4.301824262000000232e+00 7.450978713999999670e+00 0.000000000000000000e+00 0.000000000000000000e+00 0.000000000000000000e+00 2.000000000000000000e+01
8.588549184999999753e+00 0.000000000000000000e+00 0.000000000000000000e+00 -4.160680667000000277e+00 7.206510819000000012e+00 0.000000000000000000e+00 0.000000000000000000e+00 0.000000000000000000e+00 2.000000000000000000e+01
8.268556548999999478e+00 0.000000000000000000e+00 0.000000000000000000e+00 -4.365050689000000261e+00 7.560490105999999599e+00 0.000000000000000000e+00 0.000000000000000000e+00 0.000000000000000000e+00 2.000000000000000000e+01
7.938740000000000130e+00 0.000000000000000000e+00 0.000000000000000000e+00 -3.969370000000000065e+00 6.875150999999999790e+00 0.000000000000000000e+00 0.000000000000000000e+00 0.000000000000000000e+00 2.000000000000000000e+01
7.938740000000000130e+00 0.000000000000000000e+00 0.000000000000000000e+00 -3.969370000000000065e+00 6.875150999999999790e+00 0.000000000000000000e+00 0.000000000000000000e+00 0.000000000000000000e+00 2.000000000000000000e+01
8.754786966999999365e+00 0.000000000000000000e+00 0.000000000000000000e+00 -4.150028048000000247e+00 7.188059939999999592e+00 0.000000000000000000e+00 0.000000000000000000e+00 0.000000000000000000e+00 2.000000000000000000e+01
8.329548441000000025e+00 0.000000000000000000e+00 0.000000000000000000e+00 -4.318562220999999646e+00 7.479969710999999855e+00 0.000000000000000000e+00 0.000000000000000000e+00 0.000000000000000000e+00 2.000000000000000000e+01
8.588917591999999601e+00 0.000000000000000000e+00 0.000000000000000000e+00 -4.147166855000000041e+00 7.183104207999999602e+00 0.000000000000000000e+00 0.000000000000000000e+00 0.000000000000000000e+00 2.000000000000000000e+01
8.632267686000000495e+00 0.000000000000000000e+00 0.000000000000000000e+00 -4.289669814999999886e+00 7.429926593000000246e+00 0.000000000000000000e+00 0.000000000000000000e+00 0.000000000000000000e+00 2.000000000000000000e+01
8.473661837999999946e+00 0.000000000000000000e+00 0.000000000000000000e+00 -4.240034757000000099e+00 7.343956143999999853e+00 0.000000000000000000e+00 0.000000000000000000e+00 0.000000000000000000e+00 2.000000000000000000e+01
8.743250399000000783e+00 0.000000000000000000e+00 0.000000000000000000e+00 -4.130117422999999732e+00 7.153573723000000051e+00 0.000000000000000000e+00 0.000000000000000000e+00 0.000000000000000000e+00 2.000000000000000000e+01
8.154379952999999404e+00 0.000000000000000000e+00 0.000000000000000000e+00 -4.384627356000000198e+00 7.594397888999999680e+00 0.000000000000000000e+00 0.000000000000000000e+00 0.000000000000000000e+00 2.000000000000000000e+01
7.938740000000000130e+00 0.000000000000000000e+00 0.000000000000000000e+00 -3.969370000000000065e+00 6.875150999999999790e+00 0.000000000000000000e+00 0.000000000000000000e+00 0.000000000000000000e+00 2.000000000000000000e+01
8.344701525999999703e+00 0.000000000000000000e+00 0.000000000000000000e+00 -4.232341391000000286e+00 7.330630841999999703e+00 0.000000000000000000e+00 0.000000000000000000e+00 0.000000000000000000e+00 2.000000000000000000e+01
7.938740000000000130e+00 0.000000000000000000e+00 0.000000000000000000e+00 -3.969370000000000065e+00 6.875150999999999790e+00 0.000000000000000000e+00 0.000000000000000000e+00 0.000000000000000000e+00 2.000000000000000000e+01
8.353871371000000323e+00 0.000000000000000000e+00 0.000000000000000000e+00 -4.077305819000000220e+00 7.062101335000000368e+00 0.000000000000000000e+00 0.000000000000000000e+00 0.000000000000000000e+00 2.000000000000000000e+01
8.277050407000000831e+00 0.000000000000000000e+00 0.000000000000000000e+00 -4.206250771999999749e+00 7.285440560999999704e+00 0.000000000000000000e+00 0.000000000000000000e+00 0.000000000000000000e+00 2.000000000000000000e+01
8.603052330000000580e+00 0.000000000000000000e+00 0.000000000000000000e+00 -4.091505148000000425e+00 7.086695297000000338e+00 0.000000000000000000e+00 0.000000000000000000e+00 0.000000000000000000e+00 2.000000000000000000e+01
8.734385280999999779e+00 0.000000000000000000e+00 0.000000000000000000e+00 -4.005884888999999838e+00 6.938396648000000333e+00 0.000000000000000000e+00 0.000000000000000000e+00 0.000000000000000000e+00 2.000000000000000000e+01
8.455932065000000719e+00 0.000000000000000000e+00 0.000000000000000000e+00 -4.278728967000000161e+00 7.410976486000000030e+00 0.000000000000000000e+00 0.000000000000000000e+00 0.000000000000000000e+00 2.000000000000000000e+01
8.726370328999999870e+00 0.000000000000000000e+00 0.000000000000000000e+00 -4.138006410000000024e+00 7.167237851000000326e+00 0.000000000000000000e+00 0.000000000000000000e+00 0.000000000000000000e+00 2.000000000000000000e+01
8.276057086999999868e+00 0.000000000000000000e+00 0.000000000000000000e+00 -4.195304563999999736e+00 7.266481172999999849e+00 0.000000000000000000e+00 0.000000000000000000e+00 0.000000000000000000e+00 2.000000000000000000e+01
8.282121252999999683e+00 0.000000000000000000e+00 0.000000000000000000e+00 -4.260297900000000304e+00 7.379052940000000227e+00 0.000000000000000000e+00 0.000000000000000000e+00 0.000000000000000000e+00 2.000000000000000000e+01
7.938740000000000130e+00 0.000000000000000000e+00 0.000000000000000000e+00 -3.969370000000000065e+00 6.875150999999999790e+00 0.000000000000000000e+00 0.000000000000000000e+00 0.000000000000000000e+00 2.000000000000000000e+01
8.665345639999999960e+00 0.000000000000000000e+00 0.000000000000000000e+00 -4.163909815000000236e+00 7.212103866999999724e+00 0.000000000000000000e+00 0.000000000000000000e+00 0.000000000000000000e+00 2.000000000000000000e+01
8.344859994000000114e+00 0.000000000000000000e+00 0.000000000000000000e+00 -4.317665831000000232e+00 7.478417119000000390e+00 0.000000000000000000e+00 0.000000000000000000e+00 0.000000000000000000e+00 2.000000000000000000e+01
8.201779445999999751e+00 0.000000000000000000e+00 0.000000000000000000e+00 -4.349337577000000010e+00 7.533274193999999646e+00 0.000000000000000000e+00 0.000000000000000000e+00 0.000000000000000000e+00 2.000000000000000000e+01
8.367507139000000649e+00 0.000000000000000000e+00 0.000000000000000000e+00 -4.356554367000000205e+00 7.545774042999999764e+00 0.000000000000000000e+00 0.000000000000000000e+00 0.000000000000000000e+00 2.000000000000000000e+01
8.476097361000000774e+00 0.000000000000000000e+00 0.000000000000000000e+00 -4.160927286999999808e+00 7.206937976999999940e+00 0.000000000000000000e+00 0.000000000000000000e+00 0.000000000000000000e+00 2.000000000000000000e+01
8.191511698999999425e+00 0.000000000000000000e+00 0.000000000000000000e+00 -4.217344426999999563e+00 7.304655335999999721e+00 0.000000000000000000e+00 0.000000000000000000e+00 0.000000000000000000e+00 2.000000000000000000e+01
8.339248565000000113e+00 0.000000000000000000e+00 0.000000000000000000e+00 -4.376050359999999806e+00 7.579542095999999951e+00 0.000000000000000000e+00 0.000000000000000000e+00 0.000000000000000000e+00 2.000000000000000000e+01
7.938740000000000130e+00 0.000000000000000000e+00 0.000000000000000000e+00 -3.969370000000000065e+00 6.875150999999999790e+00 0.000000000000000000e+00 0.000000000000000000e+00 0.000000000000000000e+00 2.000000000000000000e+01
8.344710652999999922e+00 0.000000000000000000e+00 0.000000000000000000e+00 -4.186767986000000441e+00 7.251695384999999661e+00 0.000000000000000000e+00 0.000000000000000000e+00 0.000000000000000000e+00 2.000000000000000000e+01
8.399260703999999578e+00 0.000000000000000000e+00 0.000000000000000000e+00 -4.213374079000000272e+00 7.297778491999999950e+00 0.000000000000000000e+00 0.000000000000000000e+00 0.000000000000000000e+00 2.000000000000000000e+01
8.271721760000000145e+00 0.000000000000000000e+00 0.000000000000000000e+00 -4.269519847999999840e+00 7.395025823000000109e+00 0.000000000000000000e+00 0.000000000000000000e+00 0.000000000000000000e+00 2.000000000000000000e+01
8.595305523000000392e+00 0.000000000000000000e+00 0.000000000000000000e+00 -4.139435837999999812e+00 7.169713694000000359e+00 0.000000000000000000e+00 0.000000000000000000e+00 0.000000000000000000e+00 2.000000000000000000e+01
8.475418447999999216e+00 0.000000000000000000e+00 0.000000000000000000e+00 -4.183068182999999607e+00 7.245287135999999961e+00 0.000000000000000000e+00 0.000000000000000000e+00 0.000000000000000000e+00 2.000000000000000000e+01
8.315859081999999347e+00 0.000000000000000000e+00 0.000000000000000000e+00 -4.262971215000000313e+00 7.383683257000000388e+00 0.000000000000000000e+00 0.000000000000000000e+00 0.000000000000000000e+00 2.000000000000000000e+01
7.938740000000000130e+00 0.000000000000000000e+00 0.000000000000000000e+00 -3.969370000000000065e+00 6.875150999999999790e+00 0.000000000000000000e+00 0.000000000000000000e+00 0.000000000000000000e+00 2.000000000000000000e+01
8.893611660999999557e+00 0.000000000000000000e+00 0.000000000000000000e+00 -4.381970311999999979e+00 7.589795753999999839e+00 0.000000000000000000e+00 0.000000000000000000e+00 0.000000000000000000e+00 2.000000000000000000e+01
8.239108800000000343e+00 0.000000000000000000e+00 0.000000000000000000e+00 -4.363448094999999860e+00 7.557714330999999675e+00 0.000000000000000000e+00 0.000000000000000000e+00 0.000000000000000000e+00 2.000000000000000000e+01
8.380888335999999939e+00 0.000000000000000000e+00 0.000000000000000000e+00 -4.229184831000000422e+00 7.325163519000000178e+00 0.000000000000000000e+00 0.000000000000000000e+00 0.000000000000000000e+00 2.000000000000000000e+01
8.535618675000000266e+00 0.000000000000000000e+00 0.000000000000000000e+00 -4.197050216000000056e+00 7.269504730000000414e+00 0.000000000000000000e+00 0.000000000000000000e+00 0.000000000000000000e+00 2.000000000000000000e+01
8.371917783000000668e+00 0.000000000000000000e+00 0.000000000000000000e+00 -4.252969090999999757e+00 7.366359069999999676e+00 0.000000000000000000e+00 0.000000000000000000e+00 0.000000000000000000e+00 2.000000000000000000e+01
7.938740000000000130e+00 0.000000000000000000e+00 0.000000000000000000e+00 -3.969370000000000065e+00 6.875150999999999790e+00 0.000000000000000000e+00 0.000000000000000000e+00 0.000000000000000000e+00 2.000000000000000000e+01
8.448207402999999616e+00 0.000000000000000000e+00 0.000000000000000000e+00 -4.233477318000000267e+00 7.332598326000000277e+00 0.000000000000000000e+00 0.000000000000000000e+00 0.000000000000000000e+00 2.000000000000000000e+01
8.344353089000000168e+00 0.000000000000000000e+00 0.000000000000000000e+00 -4.277327002999999905e+00 7.408548213999999632e+00 0.000000000000000000e+00 0.000000000000000000e+00 0.000000000000000000e+00 2.000000000000000000e+01
8.541980798000000874e+00 0.000000000000000000e+00 0.000000000000000000e+00 -4.165533195000000077e+00 7.214915644999999600e+00 0.000000000000000000e+00 0.000000000000000000e+00 0.000000000000000000e+00 2.000000000000000000e+01
8.299858104000000125e+00 0.000000000000000000e+00 0.000000000000000000e+00 -4.295193918999999916e+00 7.439494621999999779e+00 0.000000000000000000e+00 0.000000000000000000e+00 0.000000000000000000e+00 2.000000000000000000e+01
8.259757523999999407e+00 0.000000000000000000e+00 0.000000000000000000e+00 -4.156238725999999772e+00 7.198817149999999998e+00 0.000000000000000000e+00 0.000000000000000000e+00 0.000000000000000000e+00 2.000000000000000000e+01
8.598669878999999128e+00 0.000000000000000000e+00 0.000000000000000000e+00 -4.127624665999999998e+00 7.149256141999999592e+00 0.000000000000000000e+00 0.000000000000000000e+00 0.000000000000000000e+00 2.000000000000000000e+01
8.886516743999999690e+00 0.000000000000000000e+00 0.000000000000000000e+00 -4.059180515999999628e+00 7.030707387999999725e+00 0.000000000000000000e+00 0.000000000000000000e+00 0.000000000000000000e+00 2.000000000000000000e+01
8.398405205999999623e+00 0.000000000000000000e+00 0.000000000000000000e+00 -4.430241630000000264e+00 7.673404136000000264e+00 0.000000000000000000e+00 0.000000000000000000e+00 0.000000000000000000e+00 2.000000000000000000e+01
8.876919084000000737e+00 0.000000000000000000e+00 0.000000000000000000e+00 -4.103193477999999672e+00 7.106940079000000132e+00 0.000000000000000000e+00 0.000000000000000000e+00 0.000000000000000000e+00 2.000000000000000000e+01
8.663443497999999465e+00 0.000000000000000000e+00 0.000000000000000000e+00 -4.053763799000000390e+00 7.021325358000000350e+00 0.000000000000000000e+00 0.000000000000000000e+00 0.000000000000000000e+00 2.000000000000000000e+01
7.938740000000000130e+00 0.000000000000000000e+00 0.000000000000000000e+00 -3.969370000000000065e+00 6.875150999999999790e+00 0.000000000000000000e+00 0.000000000000000000e+00 0.000000000000000000e+00 2.000000000000000000e+01
8.325982061999999573e+00 0.000000000000000000e+00 0.000000000000000000e+00 -4.308223746000000354e+00 7.462062945999999641e+00 0.000000000000000000e+00 0.000000000000000000e+00 0.000000000000000000e+00 2.000000000000000000e+01
8.433271515999999579e+00 0.000000000000000000e+00 0.000000000000000000e+00 -4.185187208000000325e+00 7.248957395999999775e+00 0.000000000000000000e+00 0.000000000000000000e+00 0.000000000000000000e+00 2.000000000000000000e+01
7.938740000000000130e+00 0.000000000000000000e+00 0.000000000000000000e+00 -3.969370000000000065e+00 6.875150999999999790e+00 0.000000000000000000e+00 0.000000000000000000e+00 0.000000000000000000e+00 2.000000000000000000e+01
8.304234251000000455e+00 0.000000000000000000e+00 0.000000000000000000e+00 -4.173746674000000212e+00 7.229141807999999614e+00 0.000000000000000000e+00 0.000000000000000000e+00 0.000000000000000000e+00 2.000000000000000000e+01
8.371677913999999276e+00 0.000000000000000000e+00 0.000000000000000000e+00 -4.386007258000000242e+00 7.596787950000000400e+00 0.000000000000000000e+00 0.000000000000000000e+00 0.000000000000000000e+00 2.000000000000000000e+01
8.532002475000000530e+00 0.000000000000000000e+00 0.000000000000000000e+00 -4.268619830999999643e+00 7.393466947000000289e+00 0.000000000000000000e+00 0.000000000000000000e+00 0.000000000000000000e+00 2.000000000000000000e+01
8.523801736999999434e+00 0.000000000000000000e+00 0.000000000000000000e+00 -4.176019546000000027e+00 7.233078539000000085e+00 0.000000000000000000e+00 0.000000000000000000e+00 0.000000000000000000e+00 2.000000000000000000e+01
8.732399436999999764e+00 0.000000000000000000e+00 0.000000000000000000e+00 -4.289532305999999906e+00 7.429688420999999821e+00 0.000000000000000000e+00 0.000000000000000000e+00 0.000000000000000000e+00 2.000000000000000000e+01
7.938740000000000130e+00 0.000000000000000000e+00 0.000000000000000000e+00 -3.969370000000000065e+00 6.875150999999999790e+00 0.000000000000000000e+00 0.000000000000000000e+00 0.000000000000000000e+00 2.000000000000000000e+01
8.181510639000000751e+00 0.000000000000000000e+00 0.000000000000000000e+00 -4.259175880999999997e+00 7.377109544999999713e+00 0.000000000000000000e+00 0.000000000000000000e+00 0.000000000000000000e+00 2.000000000000000000e+01
8.306521988000000079e+00 0.000000000000000000e+00 0.000000000000000000e+00 -4.196837372000000066e+00 7.269136074000000391e+00 0.000000000000000000e+00 0.000000000000000000e+00 0.000000000000000000e+00 2.000000000000000000e+01
8.763892380999999787e+00 0.000000000000000000e+00 0.000000000000000000e+00 -4.088332780000000000e+00 7.081200594000000237e+00 0.000000000000000000e+00 0.000000000000000000e+00 0.000000000000000000e+00 2.000000000000000000e+01
8.522949781999999530e+00 0.000000000000000000e+00 0.000000000000000000e+00 -4.223412857999999659e+00 7.315166168000000191e+00 0.000000000000000000e+00 0.000000000000000000e+00 0.000000000000000000e+00 2.000000000000000000e+01
8.583288093000000174e+00 0.000000000000000000e+00 0.000000000000000000e+00 -4.325867545999999564e+00 7.492622906000000249e+00 0.000000000000000000e+00 0.000000000000000000e+00 0.000000000000000000e+00 2.000000000000000000e+01
8.447729536000000650e+00 0.000000000000000000e+00 0.000000000000000000e+00 -4.229611285999999915e+00 7.325902161000000135e+00 0.000000000000000000e+00 0.000000000000000000e+00 0.000000000000000000e+00 2.000000000000000000e+01
