-6.626277095000000372e+01
-6.941931151000000000e+01
-6.920913016999999456e+01
-6.945999109000000260e+01
-6.939350348000000679e+01
-6.847861342000000207e+01
-6.626207737000000009e+01
-6.931846047999999882e+01
-6.544666218000000413e+01
-6.626199708999999416e+01
-6.911129927000000350e+01
-6.949695776999999453e+01
-6.969326422000000321e+01
-6.627874909999999886e+01
-6.626166329000000133e+01
-6.868559831000000315e+01
-6.925509979999999643e+01
-6.945099374999999498e+01
-6.790773384000000590e+01
-6.763581025999999952e+01
-6.922282921000000044e+01
-6.850691761999999585e+01
-6.928209153000000242e+01
-6.626280723000000705e+01
-6.888153366999999605e+01
-6.926177719999999738e+01
-6.954437688999999523e+01
-6.873247693999999797e+01
-6.925866390000000195e+01
-6.958496343000000195e+01
-6.943443809999999417e+01
-6.905327096999999981e+01
-6.626124020000000314e+01
-6.626261463000000163e+01
-6.938040175000000431e+01
-6.969781480999999701e+01
-6.878194462000000442e+01
-6.672417185999999845e+01
-6.932355997999999886e+01
-6.841946676999999966e+01
-6.864427247000000420e+01
-6.626117632000000413e+01
-6.962294511000000341e+01
-6.626283164999999542e+01
-6.744797809000000655e+01
-6.957676021000000333e+01
-6.975066393999999548e+01
-7.004534821999999394e+01
-6.902473894000000598e+01
-6.931414943999999423e+01
-6.877034933999999566e+01
-6.935267163999999696e+01
-6.626244198000000551e+01
-6.971657222999999703e+01
-6.931967688000000294e+01
-6.944192678999999657e+01
-6.523684328000000221e+01
-6.912958143000000177e+01
-6.868257199999999330e+01
-6.963241007000000593e+01
-6.626045643000000496e+01
-6.982814424000000031e+01
-6.947294383000000551e+01
-6.836555515999999955e+01
-6.901541614999999297e+01
-6.859122825000000034e+01
-6.928961408000000688e+01
-6.626259838000000002e+01
-6.566158586000000241e+01
-6.954389270000000067e+01
-6.973850851999999634e+01
-6.895930026999999995e+01
-6.932344492000000002e+01
-6.626251241999999309e+01
-6.947596939999999677e+01
-6.949738732999999513e+01
-6.875372174999999686e+01
-7.007449037000000658e+01
-6.705737370999999314e+01
-6.953674259000000291e+01
-6.943880135000000564e+01
-6.913052518000000646e+01
-6.668432767000000183e+01
-6.890006657000000700e+01
-6.626297884000000238e+01
-6.946815501999999753e+01
-6.945433423000000062e+01
-6.626045643000000496e+01
-6.836938892999999950e+01
-6.902516875999999968e+01
-6.906454062000000249e+01
-6.837730704999999887e+01
-6.874753536999999426e+01
-6.626207159000000502e+01
-6.953441512000000557e+01
-6.944476668000000075e+01
-6.973710957000000121e+01
-6.936249499000000185e+01
-6.867462949000000094e+01
-6.636772908999999743e+01
