-2.466199999999999989e-02 2.178400000000000128e-02 1.329400000000000026e-02 -3.165199999999999958e-02 -2.096999999999999906e-03 -2.952099999999999863e-02 -5.729999999999999850e-03 -5.490000000000000088e-03 2.950300000000000145e-02 -1.074199999999999981e-02 -3.133500000000000174e-02 -2.205199999999999869e-02 2.472999999999999938e-03 7.268000000000000155e-03 3.188200000000000062e-02 1.865100000000000091e-02 -2.462200000000000152e-02 -7.971999999999999920e-02 1.007800000000000015e-02 1.537700000000000004e-02 -4.953799999999999870e-02 -7.282000000000000278e-03 -2.358999999999999986e-03 -2.152999999999999966e-03 1.625599999999999962e-02 -1.667000000000000079e-02 -6.283000000000000390e-03 1.883599999999999858e-02 5.130599999999999744e-02 2.271600000000000008e-02 1.362999999999999975e-02 -5.806100000000000150e-02 -1.560500000000000081e-02 2.283800000000000066e-02 8.600999999999999271e-03 5.409999999999999878e-03 -1.990600000000000008e-02 1.013499999999999991e-02 4.158000000000000237e-03 -1.033500000000000044e-02 1.442700000000000059e-02 -2.731300000000000047e-02 9.537000000000000338e-03 -5.841999999999999971e-03 -1.114700000000000066e-02 -4.657999999999999814e-03 2.126099999999999865e-02 -2.265999999999999959e-02 2.397999999999999958e-03 -2.840000000000000185e-04 -9.032000000000000098e-03 -2.680999999999999790e-03 -2.514999999999999875e-03 9.133600000000000052e-02 2.139999999999999975e-04 2.979999999999999793e-04 6.144199999999999662e-02 2.736999999999999850e-03 -1.182000000000000108e-03 1.528299999999999971e-02
-7.893899999999999528e-02 1.336279999999999968e-01 -2.001459999999999906e-01 2.424659999999999871e-01 6.990100000000000480e-02 3.341939999999999911e-01 5.108599999999999947e-02 3.643810000000000104e-01 8.332129999999999814e-01 1.872749999999999970e-01 -6.211879999999999624e-01 -5.079649999999999999e-01 2.605529999999999791e-01 1.066780999999999979e+00 2.170709999999999862e-01 6.809279999999999777e-01 -2.753840000000000177e-01 1.201499999999999964e-02 -2.645730000000000026e-01 -4.393159999999999843e-01 -5.722709999999999742e-01 -1.095669999999999977e-01 -1.757160000000000055e+00 2.642189999999999817e-01 4.155599999999999850e-01 1.374390000000000056e-01 6.021399999999999669e-02 -3.516589999999999994e-01 -1.772370000000000057e-01 -2.151830000000000132e-01 -4.854200000000000181e-01 -3.770350000000000090e-01 -4.323179999999999801e-01 -1.422140000000000071e-01 3.931819999999999760e-01 9.695999999999999758e-03 1.164219999999999977e-01 4.227279999999999927e-01 -1.694499999999999895e-01 1.500940000000000052e-01 1.850479999999999903e-01 8.542299999999999893e-02 -2.653229999999999755e-01 -3.662079999999999780e-01 5.398910000000000098e-01 -2.518599999999999728e-01 1.686738000000000071e+00 -8.514089999999999714e-01 -7.055999999999999772e-03 -3.593169999999999975e-01 3.553209999999999980e-01 -7.099400000000000155e-02 4.483800000000000285e-02 -7.971300000000000607e-02 5.033290000000000264e-01 7.136829999999999563e-01 2.989049999999999763e-01 -5.801079999999999570e-01 -8.455030000000000046e-01 1.829199999999999923e-02
2.133120000000000016e-01 -1.294700000000000017e-02 2.844360000000000221e-01 -6.369679999999999787e-01 -6.765980000000000327e-01 1.327309999999999879e-01 2.832399999999999918e-01 2.377819999999999934e-01 9.477900000000000214e-02 3.844910000000000272e-01 -1.064019999999999966e-01 -2.669400000000000106e-01 3.889569999999999972e-01 -4.243489999999999762e-01 -8.652879999999999461e-01 -7.178999999999999618e-03 1.914140000000000008e-01 -2.941000000000000038e-03 -2.386749999999999983e-01 -8.356900000000000439e-02 1.273080000000000045e-01 -4.646429999999999727e-01 -1.795009999999999939e-01 -9.935890000000000555e-01 -2.086629999999999874e-01 -2.021030000000000049e-01 8.118200000000000416e-02 1.522809999999999997e-01 4.240530000000000133e-01 2.071129999999999916e-01 -3.833469999999999933e-01 3.069939999999999891e-01 -1.899569999999999870e-01 2.119699999999999918e-01 -1.089620000000000033e-01 1.176499999999999942e-02 9.292899999999999772e-02 -1.226840000000000014e-01 4.066270000000000162e-01 1.556539999999999868e-01 2.199129999999999974e-01 -5.270799999999999791e-02 -1.047270000000000006e-01 1.938000000000000139e-02 -3.189779999999999838e-01 2.939800000000000052e-02 4.180570000000000119e-01 2.673559999999999826e-01 -9.571070000000000411e-01 2.058869999999999867e-01 1.196839999999999987e-01 -1.908880000000000021e-01 8.554100000000000592e-02 2.881500000000000034e-02 5.787750000000000394e-01 -2.360639999999999961e-01 2.402310000000000001e-01 7.011899999999999800e-01 4.415800000000000280e-02 6.883770000000000167e-01
1.752960000000000074e-01 2.171849999999999892e-01 -5.607309999999999794e-01 4.050869999999999749e-01 -8.614800000000000235e-02 -2.376679999999999904e-01 1.336309999999999998e-01 3.751539999999999875e-01 -4.656560000000000143e-01 3.454430000000000001e-01 -6.589169999999999749e-01 -6.923430000000000417e-01 -9.838970000000000216e-01 6.403830000000000355e-01 1.713520000000000043e-01 8.448300000000000254e-02 4.128580000000000028e-01 2.593269999999999742e-01 -1.772829999999999961e-01 8.726089999999999680e-01 -2.471839999999999871e-01 6.672599999999999365e-02 -6.654130000000000322e-01 3.258849999999999802e-01 -7.091799999999999493e-02 7.029940000000000078e-01 1.015230000000000021e-01 -8.471700000000000064e-02 -2.315619999999999901e-01 4.364080000000000181e-01 -3.223159999999999914e-01 1.086249999999999993e-01 1.462360000000000049e-01 -6.261830000000000451e-01 -2.740319999999999978e-01 5.953950000000000076e-01 2.258290000000000020e-01 -5.539299999999999780e-02 -3.561030000000000029e-01 -1.042619999999999936e-01 -5.098799999999999999e-01 -1.231130000000000002e-01 -4.025590000000000002e-01 2.454599999999999838e-02 8.497989999999999711e-01 8.564800000000000191e-02 4.831039999999999779e-01 2.827400000000000052e-02 4.731770000000000143e-01 -2.042519999999999891e-01 -1.752700000000000091e-02 5.586200000000000054e-01 -5.058390000000000386e-01 -2.541999999999999989e-03 -5.148920000000000163e-01 -1.404809999999999948e-01 1.027409999999999990e-01 7.330879999999999619e-01 -5.055420000000000469e-01 -3.140729999999999911e-01
-2.271769999999999901e-01 2.157650000000000123e-01 -6.437000000000000013e-03 2.782769999999999966e-01 1.017200000000000049e-02 -2.463450000000000084e-01 -3.881740000000000190e-01 2.087660000000000071e-01 3.367499999999999660e-02 4.165670000000000206e-01 1.617599999999999871e-01 -6.234300000000000397e-01 2.178599999999999981e-02 2.946409999999999862e-01 -1.078630000000000005e-01 2.099620000000000097e-01 -7.496119999999999450e-01 5.412820000000000409e-01 1.323966999999999894e+00 8.903180000000000538e-01 1.285850000000000048e-01 6.256000000000000449e-02 -2.664590000000000014e-01 -1.376799999999999968e-01 1.767690000000000095e-01 -2.297780000000000100e-01 -2.780799999999999939e-02 -2.087809999999999944e-01 -2.904379999999999740e-01 4.792210000000000081e-01 4.792390000000000261e-01 2.275599999999999845e-02 7.076300000000000645e-02 -1.092319999999999958e-01 1.654619999999999980e-01 4.026219999999999799e-01 -2.915849999999999831e-01 -9.060100000000000098e-02 -7.518900000000000583e-02 -1.458389999999999964e-01 3.756860000000000199e-01 -6.898649999999999505e-01 -3.454929999999999946e-01 -1.974700000000000066e-02 2.421850000000000114e-01 -1.334699999999999949e-02 2.910909999999999886e-01 -4.295519999999999894e-01 2.383270000000000111e-01 -5.852099999999999663e-02 1.495009999999999950e-01 -6.092640000000000278e-01 -7.656530000000000280e-01 -9.371300000000000463e-02 -5.701720000000000121e-01 -6.679100000000000315e-02 1.337959999999999983e-01 -2.983919999999999906e-01 -9.881700000000000206e-02 2.562530000000000086e-01
-4.392000000000000071e-02 -3.728100000000000164e-02 8.086999999999999744e-02 7.898359999999999825e-01 5.686489999999999601e-01 -9.824299999999999700e-02 3.117800000000000085e-02 2.122159999999999880e-01 1.026968000000000103e+00 1.345880000000000132e-01 -2.730049999999999977e-01 4.268390000000000239e-01 -1.469199999999999950e-01 6.958269999999999733e-01 1.028639999999999971e-01 1.009587000000000012e+00 -2.741339999999999888e-01 -3.839310000000000223e-01 1.348030000000000062e+00 -1.116603000000000012e+00 2.719690000000000163e-01 6.583539999999999948e-01 -1.351970000000000116e-01 -2.371520000000000017e-01 4.993750000000000133e-01 9.858799999999999508e-02 3.723529999999999895e-01 -1.770440000000000069e-01 -2.736569999999999836e-01 -8.145059999999999523e-01 -7.511130000000000306e-01 -6.163729999999999487e-01 4.289129999999999887e-01 -5.767459999999999809e-01 6.316700000000000093e-02 -1.640449999999999964e-01 -6.386479999999999935e-01 1.024639999999999995e-01 -7.164390000000000480e-01 -1.247919000000000000e+00 8.165029999999999788e-01 -2.718169999999999753e-01 5.875740000000000407e-01 -5.924399999999999805e-02 -4.627689999999999859e-01 -7.240290000000000337e-01 4.521919999999999829e-01 2.741649999999999920e-01 3.172679999999999945e-01 6.069729999999999848e-01 -1.799169999999999936e-01 -3.129990000000000272e-01 -9.259929999999999550e-01 -7.075099999999999445e-02 2.022919999999999996e-01 -1.814620000000000122e-01 1.617389999999999939e-01 -9.587459999999999871e-01 2.763709999999999778e-01 2.528900000000000037e-01
5.454699999999999827e-02 7.450000000000000025e-04 5.130799999999999944e-02 -8.948799999999999810e-02 -1.534999999999999906e-03 2.112299999999999942e-02 -4.653299999999999798e-02 3.854300000000000087e-02 2.205500000000000169e-02 3.373999999999999916e-02 -2.604700000000000071e-02 3.672500000000000070e-02 1.229399999999999937e-02 -3.504000000000000170e-02 -1.596799999999999956e-02 -1.533900000000000020e-02 -2.334999999999999836e-03 -3.663700000000000290e-02 3.980000000000000248e-04 -9.240000000000000166e-04 -7.769700000000000217e-02 9.879000000000000628e-03 5.651999999999999906e-03 2.779500000000000026e-02 -1.717399999999999829e-02 -3.449900000000000189e-02 -7.642999999999999794e-02 2.868599999999999969e-02 5.923999999999999579e-03 3.673599999999999782e-02 -9.520000000000000467e-04 1.198899999999999966e-02 -3.825999999999999974e-03 3.712800000000000128e-02 -2.355000000000000149e-02 -5.904700000000000226e-02 5.826999999999999715e-03 3.533000000000000029e-02 -1.855199999999999905e-02 6.784000000000000100e-03 2.348099999999999840e-02 8.000000000000000654e-05 7.067000000000000365e-03 8.923000000000000376e-03 -7.784000000000000120e-03 -2.706799999999999831e-02 -2.889000000000000075e-03 1.834399999999999920e-02 -1.469999999999999953e-04 -3.315999999999999937e-03 2.569700000000000109e-02 2.059999999999999928e-04 -1.064000000000000059e-03 4.106599999999999834e-02 6.329999999999999906e-04 -3.039000000000000035e-03 5.052999999999999853e-02 -4.870000000000000197e-04 3.652999999999999997e-03 -3.551900000000000196e-02
-1.263648000000000104e+00 5.696590000000000265e-01 5.422069999999999945e-01 -5.726240000000000219e-01 -4.973730000000000095e-01 2.398899999999999991e-02 4.864490000000000203e-01 -1.397999999999999937e-03 1.034059999999999979e-01 -2.233970000000000122e-01 -2.832850000000000090e-01 -8.590000000000000413e-03 -2.028899999999999870e-01 -1.725609999999999922e-01 -1.680359999999999909e-01 -1.060429999999999984e-01 -8.790399999999999603e-02 -4.842000000000000193e-01 8.157799999999999774e-02 1.253355999999999915e+00 4.033649999999999736e-01 -1.381899999999999969e-02 -5.544949999999999601e-01 3.993470000000000075e-01 4.122569999999999846e-01 4.069059999999999899e-01 -3.524570000000000203e-01 4.539039999999999742e-01 1.919980000000000020e-01 1.716949999999999865e-01 4.139039999999999941e-01 -1.696070000000000078e-01 -2.090869999999999951e-01 4.600839999999999930e-01 -4.067250000000000032e-01 -1.110000000000000049e-02 -4.008199999999999957e-02 -1.694599999999999926e-02 -8.221299999999999442e-02 8.852699999999999458e-02 -3.003499999999999920e-02 -1.776270000000000071e-01 1.541659999999999975e-01 -9.541600000000000081e-02 3.630760000000000098e-01 -1.554389999999999938e-01 6.165469999999999562e-01 -3.066610000000000169e-01 -6.792669999999999542e-01 3.441919999999999980e-01 4.248779999999999779e-01 -2.608199999999999963e-01 -3.050490000000000146e-01 1.014349999999999974e-01 2.957040000000000224e-01 -8.375299999999999412e-02 -1.363099999999999867e-01 6.714550000000000241e-01 -6.781110000000000193e-01 -5.971180000000000376e-01
-1.291940000000000033e-01 1.462380000000000069e-01 -8.935340000000000504e-01 -1.638120000000000132e-01 -6.194600000000000106e-02 -1.969549999999999912e-01 -1.436870000000000092e-01 -3.827900000000000053e-02 -5.341089999999999449e-01 2.131600000000000161e-02 -1.892139999999999933e-01 -3.208239999999999981e-01 1.862099999999999866e-02 3.923590000000000133e-01 1.242300000000000001e-02 -1.130420000000000036e-01 -1.686060000000000059e-01 -4.178799999999999876e-02 -2.480809999999999960e-01 5.731900000000000189e-02 2.080410000000000037e-01 -2.170999999999999874e-01 8.053899999999999948e-02 -8.227759999999999518e-01 -3.594399999999999679e-02 3.106599999999999986e-02 4.633789999999999853e-01 6.787799999999999390e-02 3.068699999999999761e-01 -2.117680000000000118e-01 -1.294420000000000015e-01 -4.009200000000000264e-02 2.052070000000000005e-01 1.510360000000000036e-01 3.503310000000000035e-01 3.731590000000000185e-01 1.504369999999999874e-01 -1.053010000000000057e-01 4.620440000000000103e-01 4.763569999999999749e-01 -3.691090000000000204e-01 2.656180000000000208e-01 -2.522090000000000165e-01 -2.545689999999999897e-01 4.348480000000000123e-01 -4.761219999999999897e-01 -5.985000000000000042e-02 6.085200000000000331e-02 4.601839999999999820e-01 -2.390079999999999982e-01 3.972149999999999848e-01 2.037579999999999947e-01 2.130219999999999891e-01 -3.713700000000000334e-02 9.011600000000000166e-02 1.614819999999999867e-01 -4.584360000000000102e-01 2.689309999999999756e-01 -2.132529999999999981e-01 6.345410000000000217e-01
1.242099999999999975e-02 -1.567000000000000033e-03 3.822300000000000003e-02 -5.342999999999999833e-02 4.263000000000000296e-03 3.668500000000000233e-02 4.800000000000000122e-05 3.277800000000000158e-02 1.272299999999999993e-02 5.363600000000000312e-02 5.065900000000000264e-02 5.060800000000000021e-02 6.788999999999999896e-03 -8.871999999999999678e-03 1.702199999999999894e-02 1.482999999999999943e-02 1.351999999999999903e-03 -9.470699999999999952e-02 -1.332999999999999984e-02 -4.908000000000000036e-03 -6.154400000000000148e-02 -1.342999999999999923e-02 -9.591999999999999832e-03 -1.713999999999999899e-02 -1.402199999999999974e-02 -3.692499999999999949e-02 -2.848600000000000090e-02 2.139200000000000129e-02 -3.133899999999999880e-02 1.149000000000000021e-02 -2.504999999999999848e-03 3.103999999999999988e-03 -2.535300000000000054e-02 -1.732799999999999965e-02 -5.210399999999999754e-02 -7.236700000000000077e-02 -9.164999999999999536e-03 2.379900000000000071e-02 -8.241000000000000061e-03 -1.148000000000000062e-02 -7.239999999999999908e-03 -2.428100000000000050e-02 1.230099999999999943e-02 1.915400000000000089e-02 -3.302499999999999880e-02 1.288000000000000082e-02 2.149500000000000022e-02 -1.667199999999999932e-02 2.915000000000000056e-03 -2.079999999999999818e-03 1.691000000000000012e-03 -6.099999999999999872e-05 3.030999999999999840e-03 1.007689999999999975e-01 -3.442000000000000181e-03 -3.555000000000000000e-03 7.669800000000000229e-02 9.820000000000000170e-04 -1.451999999999999949e-03 3.590399999999999842e-02
-5.150799999999999823e-02 -4.033799999999999886e-02 -7.715929999999999733e-01 -2.661839999999999762e-01 4.478300000000000336e-02 -3.147349999999999870e-01 6.355119999999999658e-01 2.510999999999999899e-01 -1.373020000000000074e-01 9.760399999999999632e-02 2.365250000000000130e-01 -2.674690000000000123e-01 7.355840000000000156e-01 -1.031536000000000008e+00 -4.681629999999999958e-01 -4.815900000000000042e-02 -4.167000000000000148e-01 1.044209999999999999e-01 -4.378520000000000190e-01 3.009620000000000073e-01 2.391459999999999975e-01 9.610000000000000486e-02 -4.371709999999999763e-01 3.461049999999999960e-01 -6.856700000000000295e-02 -5.887099999999999972e-02 -1.743000000000000105e-02 -2.172860000000000069e-01 -2.745360000000000023e-01 6.304189999999999516e-01 -4.362349999999999839e-01 -1.464660000000000128e-01 1.970399999999999929e-02 2.470279999999999976e-01 -2.798919999999999741e-01 -1.268200000000000056e-02 -1.808539999999999870e-01 4.458489999999999953e-01 -6.531199999999999506e-02 -1.536500000000000019e-02 7.838000000000000522e-02 -2.220799999999999857e-02 4.209379999999999789e-01 -7.755499999999999894e-02 4.579949999999999855e-01 1.326130000000000086e-01 3.468570000000000264e-01 -2.480239999999999945e-01 -9.739759999999999529e-01 7.146569999999999867e-01 2.300419999999999965e-01 1.926460000000000117e-01 3.078099999999999725e-01 3.161599999999999966e-01 -4.855889999999999929e-01 -1.158883000000000107e+00 1.423220000000000041e-01 6.235500000000000487e-01 1.195027000000000061e+00 -1.613950000000000107e-01
1.713860000000000106e-01 1.871230000000000115e-01 5.145319999999999894e-01 -9.536100000000000132e-02 3.516719999999999846e-01 5.504620000000000068e-01 -2.263239999999999974e-01 -2.087749999999999884e-01 -6.546729999999999494e-01 3.561600000000000182e-02 -1.066750000000000059e-01 -3.531309999999999727e-01 8.931200000000000250e-02 4.956099999999999950e-01 -6.652800000000000380e-02 1.504510000000000014e-01 5.826339999999999852e-01 -2.035160000000000025e-01 2.496450000000000058e-01 2.175340000000000051e-01 2.291060000000000041e-01 -8.817000000000000184e-03 -4.555250000000000132e-01 -1.523420000000000052e-01 -2.973000000000000087e-01 -4.135409999999999919e-01 2.473170000000000091e-01 3.171000000000000207e-02 1.580110000000000126e-01 3.269819999999999949e-01 1.164990000000000053e-01 -7.913800000000000001e-02 6.608700000000000685e-02 2.964399999999999813e-01 3.172150000000000247e-01 1.074899999999999987e-02 -1.500609999999999999e-01 -2.175799999999999956e-02 -3.577330000000000232e-01 9.383099999999999774e-02 -9.717399999999999649e-02 -5.107089999999999685e-01 7.780999999999999722e-03 -4.116679999999999784e-01 -2.327339999999999964e-01 -3.544410000000000061e-01 2.480310000000000015e-01 2.444459999999999966e-01 -8.254200000000000426e-02 -3.600619999999999932e-01 1.141120000000000051e-01 5.305870000000000308e-01 -2.301559999999999995e-01 2.659159999999999857e-01 -3.936400000000000315e-02 -3.390300000000000258e-02 -5.254799999999999749e-02 -5.190479999999999539e-01 -1.394569999999999976e-01 1.420500000000000061e-02
6.715500000000000635e-02 -1.090639999999999943e-01 -7.945199999999999485e-02 2.373679999999999957e-01 1.662059999999999926e-01 -3.872499999999999831e-01 -1.066769999999999941e-01 2.207159999999999955e-01 -4.429359999999999964e-01 -1.052560000000000023e-01 -1.510229999999999906e-01 5.953300000000000258e-02 -2.529580000000000162e-01 2.799999999999999972e-03 -1.302800000000000069e-01 7.276699999999999835e-02 -3.078250000000000153e-01 1.299210000000000087e-01 9.827909999999999702e-01 7.768810000000000437e-01 -1.495910000000000017e-01 -6.501139999999999697e-01 7.456540000000000390e-01 2.634549999999999947e-01 6.169999999999999790e-02 3.974679999999999880e-01 5.062219999999999498e-01 2.155970000000000109e-01 -1.820130000000000081e-01 2.717599999999999877e-02 3.162899999999999739e-02 -4.387190000000000256e-01 2.276189999999999880e-01 -1.917000000000000093e-01 3.451620000000000243e-01 1.006159999999999971e-01 -1.206219999999999931e-01 3.855629999999999891e-01 3.229699999999999793e-01 -6.331499999999999628e-02 -3.173360000000000070e-01 -1.228709999999999941e-01 5.001670000000000282e-01 -1.418329999999999869e-01 -4.522889999999999966e-01 7.603300000000000336e-02 -7.322349999999999692e-01 3.569359999999999755e-01 3.082050000000000067e-01 2.671799999999999731e-01 1.401840000000000031e-01 -6.170470000000000121e-01 -6.115150000000000308e-01 -1.127490000000000020e-01 -3.003049999999999886e-01 -3.608190000000000008e-01 -7.115499999999999603e-02 -1.454179999999999917e-01 4.475099999999999911e-02 -1.860600000000000032e-01
-6.124000000000000277e-02 -7.790439999999999587e-01 -2.968439999999999968e-01 -3.010439999999999783e-01 -6.896299999999999653e-02 2.899099999999999941e-02 -1.797279999999999989e-01 -4.561680000000000179e-01 8.881400000000000405e-02 -5.175079999999999680e-01 -8.639999999999999677e-04 -3.270779999999999799e-01 5.395680000000000476e-01 1.190400000000000069e-01 -3.445639999999999814e-01 -9.126360000000000028e-01 -1.087400000000000033e-01 3.341489999999999738e-01 7.947400000000000297e-02 2.401200000000000001e-01 3.404179999999999984e-01 3.124419999999999975e-01 5.044300000000000173e-02 1.633860000000000035e-01 5.980499999999999705e-02 1.657959999999999989e-01 -5.161799999999999722e-02 6.602689999999999948e-01 -3.230589999999999851e-01 -3.130229999999999957e-01 2.302649999999999975e-01 5.757189999999999808e-01 1.565509999999999957e-01 2.982400000000000051e-01 5.419030000000000236e-01 -6.286070000000000269e-01 -4.921099999999999780e-02 -8.762069999999999581e-01 3.062070000000000070e-01 1.493160000000000043e-01 4.751670000000000060e-01 3.381319999999999881e-01 2.939539999999999931e-01 4.996419999999999750e-01 2.955090000000000217e-01 -1.343219999999999970e-01 -1.643409999999999871e-01 -8.465499999999999414e-02 -8.880780000000000340e-01 -1.159960000000000019e-01 6.639810000000000434e-01 -3.406290000000000151e-01 -1.680200000000000027e-01 5.865200000000000274e-02 -7.544099999999999417e-02 -1.785990000000000077e-01 -8.498050000000000326e-01 8.365029999999999966e-01 5.721699999999999564e-01 1.214060000000000000e-01
9.206999999999999906e-03 -3.240000000000000150e-04 3.820500000000000285e-02 -2.573200000000000140e-02 5.797000000000000069e-03 2.628799999999999887e-02 3.473400000000000098e-02 -3.729500000000000176e-02 4.237900000000000000e-02 -6.884000000000000362e-03 -3.536600000000000160e-02 3.287500000000000144e-02 2.377900000000000152e-02 7.082999999999999886e-03 -5.641999999999999793e-02 -2.876199999999999937e-02 2.961999999999999789e-03 -1.571110000000000007e-01 -5.309999999999999616e-03 -2.200000000000000078e-04 -4.453700000000000020e-02 -5.773000000000000353e-03 -4.114999999999999734e-03 1.924599999999999922e-02 -3.214800000000000296e-02 3.114600000000000007e-02 -3.339700000000000307e-02 7.634000000000000161e-03 3.385599999999999721e-02 -3.194999999999999923e-02 -1.107200000000000024e-02 -2.384800000000000114e-02 -2.803500000000000089e-02 2.560000000000000123e-02 -6.210000000000000242e-03 -2.293500000000000053e-02 1.053800000000000049e-02 -1.285999999999999990e-02 -3.408699999999999924e-02 -2.651999999999999844e-03 1.610999999999999932e-02 1.734000000000000081e-03 2.469100000000000114e-02 3.694999999999999934e-03 -4.931999999999999752e-03 -1.727899999999999922e-02 2.007300000000000056e-02 -2.787600000000000147e-02 -1.085999999999999943e-03 4.265999999999999827e-03 6.575000000000000289e-02 1.085000000000000027e-03 -2.106999999999999932e-03 1.639329999999999954e-01 1.490999999999999921e-03 -2.608000000000000075e-03 4.522500000000000131e-02 -2.060999999999999898e-03 -3.300000000000000253e-05 5.644999999999999844e-03
1.006330000000000002e-01 -1.544619999999999882e-01 5.511100000000000027e-02 5.859220000000000539e-01 2.832499999999999948e-02 3.796430000000000082e-01 -5.388920000000000377e-01 -7.586500000000000188e-02 1.131810000000000038e-01 5.728830000000000311e-01 3.000570000000000181e-01 1.177559999999999996e-01 6.888379999999999503e-01 1.812229999999999952e-01 -4.280860000000000221e-01 4.124249999999999861e-01 -4.766700000000000104e-02 9.908799999999999553e-02 5.306180000000000341e-01 -2.993580000000000130e-01 -2.816520000000000135e-01 2.217099999999999974e-02 -3.509199999999999819e-02 -8.381170000000000009e-01 5.394989999999999508e-01 -2.883479999999999932e-01 -1.600169999999999926e-01 -5.388030000000000319e-01 -9.805899999999999339e-02 -1.417130000000000056e-01 -2.690679999999999739e-01 2.788889999999999980e-01 3.148460000000000147e-01 -4.794100000000000028e-01 6.083000000000000212e-02 -1.264049999999999896e-01 -5.291759999999999797e-01 1.810000000000000085e-04 -2.554390000000000271e-01 5.325170000000000181e-01 -1.827529999999999988e-01 1.385800000000000087e-01 -3.848829999999999751e-01 1.272189999999999988e-01 1.869260000000000088e-01 2.124099999999999877e-01 2.255719999999999947e-01 -7.259959999999999747e-01 -6.841960000000000264e-01 -5.120999999999999996e-01 7.844600000000000184e-02 -6.450439999999999507e-01 2.749260000000000037e-01 1.514089999999999880e-01 -7.166240000000000387e-01 1.523899999999999977e-01 -1.989600000000000049e-02 5.881809999999999539e-01 6.409199999999999620e-02 1.342335000000000056e+00
1.282959999999999934e-01 2.425039999999999973e-01 -5.061849999999999961e-01 -7.321300000000000030e-02 -1.740879999999999928e-01 -2.076220000000000010e-01 -7.352400000000000602e-02 -1.197639999999999955e-01 2.492910000000000126e-01 -1.135239999999999999e-01 1.141279999999999933e-01 4.347289999999999766e-01 -4.440620000000000123e-01 -5.068660000000000387e-01 -1.134697000000000067e+00 5.930099999999999955e-02 -3.454800000000000093e-01 -2.130599999999999855e-02 1.989090000000000025e-01 7.721200000000000285e-02 -4.603709999999999747e-01 1.087359999999999993e-01 -5.828900000000000053e-02 -2.435999999999999971e-02 -9.386300000000000199e-02 2.251509999999999900e-01 -1.210340000000000027e-01 4.669289999999999830e-01 -5.152600000000000235e-02 -6.401600000000000346e-02 4.712500000000000022e-02 -9.628100000000000547e-02 -1.033870000000000067e-01 -1.361940000000000095e-01 -4.285909999999999997e-01 -8.415799999999999670e-02 -1.903849999999999987e-01 2.035000000000000003e-02 5.708689999999999598e-01 8.140100000000000113e-02 -4.223230000000000040e-01 7.010509999999999797e-01 -5.182400000000000201e-02 3.909860000000000002e-01 1.366130000000000122e-01 -2.497699999999999920e-02 1.982210000000000083e-01 -8.387100000000000111e-02 -4.505500000000000060e-01 1.264302999999999955e+00 2.969490000000000185e-01 7.854820000000000135e-01 -4.286920000000000175e-01 -3.063609999999999944e-01 -2.945289999999999853e-01 1.347980000000000012e-01 6.472480000000000455e-01 7.046700000000000186e-02 -3.575300000000000006e-02 8.061699999999999422e-02
1.387339999999999962e-01 5.639370000000000216e-01 -5.784120000000000372e-01 1.647289999999999865e-01 1.203729999999999939e-01 -4.223109999999999919e-01 3.846840000000000259e-01 -2.271239999999999926e-01 6.628990000000000160e-01 -7.960289999999999866e-01 3.968340000000000201e-01 3.567859999999999920e-01 1.286624999999999908e+00 7.554269999999999596e-01 2.039509999999999934e-01 8.712799999999999712e-02 -6.884160000000000279e-01 8.563720000000000221e-01 -2.553500000000000214e-01 -2.162250000000000005e-01 -2.730529999999999902e-01 -6.231640000000000512e-01 -4.822699999999999765e-01 8.541999999999999246e-03 -1.753720000000000001e-01 -8.495900000000000674e-02 2.677379999999999760e-01 4.267420000000000102e-01 -3.311479999999999979e-01 -5.922469999999999679e-01 -1.191819999999999963e-01 -2.616299999999999876e-02 9.889000000000000221e-03 8.028499999999999526e-02 2.040999999999999846e-03 3.030919999999999725e-01 3.971149999999999958e-01 1.736979999999999913e-01 4.770840000000000081e-01 1.192529999999999979e-01 3.022059999999999746e-01 6.080300000000000288e-02 -7.421999999999999778e-03 -2.868120000000000114e-01 -4.148879999999999790e-01 -1.576549999999999896e-01 1.905590000000000062e-01 -5.824930000000000385e-01 2.522409999999999930e-01 -3.982820000000000249e-01 7.321199999999999930e-02 -2.755199999999999871e-01 1.301559999999999939e-01 -3.231390000000000096e-01 -2.257629999999999915e-01 7.056810000000000027e-01 1.401139999999999886e-01 -7.020790000000000086e-01 -5.995110000000000161e-01 -2.339390000000000081e-01
2.697289999999999965e-01 3.078460000000000085e-01 1.515970000000000095e-01 1.273980000000000112e-01 3.747889999999999833e-01 1.232550000000000034e-01 -3.004000000000000160e-03 6.915699999999999625e-02 1.665020000000000111e-01 7.415800000000000169e-02 2.003080000000000138e-01 -1.040899999999999985e-02 1.040829999999999950e-01 1.401820000000000010e-01 3.031899999999999873e-02 -1.362919999999999965e-01 2.027269999999999905e-01 -2.431899999999999895e-01 -1.487050000000000038e-01 2.097249999999999948e-01 -3.472759999999999736e-01 4.154399999999999760e-01 -1.971759999999999902e-01 5.333499999999999908e-01 1.118289999999999978e-01 -7.477000000000000139e-03 7.015599999999999614e-02 -1.103119999999999934e-01 -4.762799999999999673e-02 -1.830620000000000025e-01 -4.040730000000000155e-01 -2.994290000000000007e-01 -2.996880000000000099e-01 -1.192970000000000003e-01 -2.183229999999999893e-01 -2.965599999999999903e-01 -3.502850000000000130e-01 -2.288419999999999899e-01 1.046020000000000005e-01 1.358030000000000070e-01 -2.706950000000000189e-01 4.177179999999999782e-01 1.383590000000000098e-01 1.043479999999999963e-01 4.323910000000000253e-01 1.341199999999999892e-01 -2.385619999999999963e-01 4.659110000000000196e-01 -1.287490000000000023e-01 -5.897040000000000060e-01 -2.871839999999999948e-01 1.323499999999999954e-01 4.130400000000000044e-02 -1.019879999999999953e-01 -9.332699999999999330e-02 -2.330790000000000084e-01 -6.849700000000000233e-02 -1.492249999999999965e-01 6.805309999999999970e-01 -6.579460000000000308e-01