8.334771218000000204e+00 0.000000000000000000e+00 0.000000000000000000e+00 -4.065045379999999930e+00 7.040865629999999875e+00 0.000000000000000000e+00 0.000000000000000000e+00 0.000000000000000000e+00 2.000000000000000000e+01
7.892093464000000225e+00 0.000000000000000000e+00 0.000000000000000000e+00 -3.834394683999999831e+00 6.641366878000000362e+00 0.000000000000000000e+00 0.000000000000000000e+00 0.000000000000000000e+00 2.000000000000000000e+01
1.461845302100000055e+01 0.000000000000000000e+00 0.000000000000000000e+00 -3.960872023999999936e+00 6.860432073000000130e+00 0.000000000000000000e+00 0.000000000000000000e+00 0.000000000000000000e+00 2.000000000000000000e+01
7.793695007000000174e+00 0.000000000000000000e+00 0.000000000000000000e+00 3.233728788000000076e+00 8.513572995000000532e+00 0.000000000000000000e+00 0.000000000000000000e+00 0.000000000000000000e+00 2.000000000000000000e+01
8.319151958000000846e+00 0.000000000000000000e+00 0.000000000000000000e+00 -4.034556646000000413e+00 6.988057590000000374e+00 0.000000000000000000e+00 0.000000000000000000e+00 0.000000000000000000e+00 2.000000000000000000e+01
1.359159244299999969e+01 0.000000000000000000e+00 0.000000000000000000e+00 -3.884107935999999928e+00 6.727472762999999745e+00 0.000000000000000000e+00 0.000000000000000000e+00 0.000000000000000000e+00 2.000000000000000000e+01
1.970955190700000159e+01 0.000000000000000000e+00 0.000000000000000000e+00 -3.393160642999999865e+00 5.877127048000000187e+00 0.000000000000000000e+00 0.000000000000000000e+00 0.000000000000000000e+00 2.000000000000000000e+01
1.519686305599999976e+01 0.000000000000000000e+00 0.000000000000000000e+00 -4.164091628000000433e+00 7.212418776999999892e+00 0.000000000000000000e+00 0.000000000000000000e+00 0.000000000000000000e+00 2.000000000000000000e+01
7.805529875000000395e+00 0.000000000000000000e+00 0.000000000000000000e+00 2.899126288000000162e+00 7.632651000000000074e+00 0.000000000000000000e+00 0.000000000000000000e+00 0.000000000000000000e+00 2.000000000000000000e+01
7.758966766000000348e+00 0.000000000000000000e+00 0.000000000000000000e+00 2.370450690000000193e+00 6.402122459000000099e+00 0.000000000000000000e+00 0.000000000000000000e+00 0.000000000000000000e+00 2.000000000000000000e+01
7.111906281999999635e+00 0.000000000000000000e+00 0.000000000000000000e+00 2.519065798999999828e+00 6.803502722000000169e+00 0.000000000000000000e+00 0.000000000000000000e+00 0.000000000000000000e+00 2.000000000000000000e+01
1.704297555400000164e+01 0.000000000000000000e+00 0.000000000000000000e+00 -3.634289498999999868e+00 6.294774506000000436e+00 0.000000000000000000e+00 0.000000000000000000e+00 0.000000000000000000e+00 2.000000000000000000e+01
8.241341331999999298e+00 0.000000000000000000e+00 0.000000000000000000e+00 2.471963940000000193e+00 6.824210514999999866e+00 0.000000000000000000e+00 0.000000000000000000e+00 0.000000000000000000e+00 2.000000000000000000e+01
1.746516271300000156e+01 0.000000000000000000e+00 0.000000000000000000e+00 -3.602150997999999937e+00 6.239108986999999829e+00 0.000000000000000000e+00 0.000000000000000000e+00 0.000000000000000000e+00 2.000000000000000000e+01
8.231141091999999659e+00 0.000000000000000000e+00 0.000000000000000000e+00 -3.948370736999999853e+00 6.838779206999999971e+00 0.000000000000000000e+00 0.000000000000000000e+00 0.000000000000000000e+00 2.000000000000000000e+01
1.855322726400000022e+01 0.000000000000000000e+00 0.000000000000000000e+00 -3.519024842999999958e+00 6.095130251999999693e+00 0.000000000000000000e+00 0.000000000000000000e+00 0.000000000000000000e+00 2.000000000000000000e+01
9.959557829999999612e+00 0.000000000000000000e+00 0.000000000000000000e+00 -3.929120891000000171e+00 6.805437494000000420e+00 0.000000000000000000e+00 0.000000000000000000e+00 0.000000000000000000e+00 2.000000000000000000e+01
1.505076929600000035e+01 0.000000000000000000e+00 0.000000000000000000e+00 -3.944124566000000165e+00 6.831424623000000196e+00 0.000000000000000000e+00 0.000000000000000000e+00 0.000000000000000000e+00 2.000000000000000000e+01
8.046119732999999385e+00 0.000000000000000000e+00 0.000000000000000000e+00 3.465035735999999922e+00 9.099548863000000765e+00 0.000000000000000000e+00 0.000000000000000000e+00 0.000000000000000000e+00 2.000000000000000000e+01
6.822280476000000426e+00 0.000000000000000000e+00 0.000000000000000000e+00 2.690718704000000017e+00 7.040836922999999636e+00 0.000000000000000000e+00 0.000000000000000000e+00 0.000000000000000000e+00 2.000000000000000000e+01
8.304082148999999191e+00 0.000000000000000000e+00 0.000000000000000000e+00 3.971026264999999889e+00 1.042833329499999984e+01 0.000000000000000000e+00 0.000000000000000000e+00 0.000000000000000000e+00 2.000000000000000000e+01
7.960232556000000237e+00 0.000000000000000000e+00 0.000000000000000000e+00 -3.898936702999999948e+00 6.753156942999999579e+00 0.000000000000000000e+00 0.000000000000000000e+00 0.000000000000000000e+00 2.000000000000000000e+01
8.279649404000000601e+00 0.000000000000000000e+00 0.000000000000000000e+00 -4.071484843000000353e+00 7.052019107999999648e+00 0.000000000000000000e+00 0.000000000000000000e+00 0.000000000000000000e+00 2.000000000000000000e+01
7.764350761000000212e+00 0.000000000000000000e+00 0.000000000000000000e+00 -3.889781128000000088e+00 6.737299020000000027e+00 0.000000000000000000e+00 0.000000000000000000e+00 0.000000000000000000e+00 2.000000000000000000e+01
7.423265941000000367e+00 0.000000000000000000e+00 0.000000000000000000e+00 2.373421870000000045e+00 6.410147032000000245e+00 0.000000000000000000e+00 0.000000000000000000e+00 0.000000000000000000e+00 2.000000000000000000e+01
1.154232527299999944e+01 0.000000000000000000e+00 0.000000000000000000e+00 -3.767280292000000141e+00 6.525121333999999607e+00 0.000000000000000000e+00 0.000000000000000000e+00 0.000000000000000000e+00 2.000000000000000000e+01
1.672880799700000054e+01 0.000000000000000000e+00 0.000000000000000000e+00 -4.012639699000000171e+00 6.950096322000000271e+00 0.000000000000000000e+00 0.000000000000000000e+00 0.000000000000000000e+00 2.000000000000000000e+01
1.728059231199999957e+01 0.000000000000000000e+00 0.000000000000000000e+00 -3.391119048999999830e+00 5.873590903000000196e+00 0.000000000000000000e+00 0.000000000000000000e+00 0.000000000000000000e+00 2.000000000000000000e+01
8.465395554000000544e+00 0.000000000000000000e+00 0.000000000000000000e+00 -3.664544923999999870e+00 6.347178443999999864e+00 0.000000000000000000e+00 0.000000000000000000e+00 0.000000000000000000e+00 2.000000000000000000e+01
1.494918873499999989e+01 0.000000000000000000e+00 0.000000000000000000e+00 -3.760516033000000036e+00 6.513405291999999847e+00 0.000000000000000000e+00 0.000000000000000000e+00 0.000000000000000000e+00 2.000000000000000000e+01
7.569830793999999585e+00 0.000000000000000000e+00 0.000000000000000000e+00 2.620218277000000207e+00 6.856357582000000228e+00 0.000000000000000000e+00 0.000000000000000000e+00 0.000000000000000000e+00 2.000000000000000000e+01
8.063359618999999867e+00 0.000000000000000000e+00 0.000000000000000000e+00 -4.238575252999999599e+00 7.341428209000000038e+00 0.000000000000000000e+00 0.000000000000000000e+00 0.000000000000000000e+00 2.000000000000000000e+01
8.114963845000000120e+00 0.000000000000000000e+00 0.000000000000000000e+00 -3.642302885999999962e+00 6.308654100000000042e+00 0.000000000000000000e+00 0.000000000000000000e+00 0.000000000000000000e+00 2.000000000000000000e+01
7.725779862999999636e+00 0.000000000000000000e+00 0.000000000000000000e+00 -4.067849952999999630e+00 7.045723295000000164e+00 0.000000000000000000e+00 0.000000000000000000e+00 0.000000000000000000e+00 2.000000000000000000e+01
7.423669636999999710e+00 0.000000000000000000e+00 0.000000000000000000e+00 -3.427741131999999968e+00 5.937022214999999825e+00 0.000000000000000000e+00 0.000000000000000000e+00 0.000000000000000000e+00 2.000000000000000000e+01
1.616955477899999849e+01 0.000000000000000000e+00 0.000000000000000000e+00 -3.624389155999999890e+00 6.277626609000000357e+00 0.000000000000000000e+00 0.000000000000000000e+00 0.000000000000000000e+00 2.000000000000000000e+01
8.619836807000000434e+00 0.000000000000000000e+00 0.000000000000000000e+00 -3.748590198000000040e+00 6.492749138999999836e+00 0.000000000000000000e+00 0.000000000000000000e+00 0.000000000000000000e+00 2.000000000000000000e+01
8.328922545999999372e+00 0.000000000000000000e+00 0.000000000000000000e+00 -3.882481464000000049e+00 6.724655629999999995e+00 0.000000000000000000e+00 0.000000000000000000e+00 0.000000000000000000e+00 2.000000000000000000e+01
8.367922695000000743e+00 0.000000000000000000e+00 0.000000000000000000e+00 -4.033706733999999905e+00 6.986585501000000420e+00 0.000000000000000000e+00 0.000000000000000000e+00 0.000000000000000000e+00 2.000000000000000000e+01
7.386275198999999958e+00 0.000000000000000000e+00 0.000000000000000000e+00 2.395467404000000133e+00 6.469687698000000431e+00 0.000000000000000000e+00 0.000000000000000000e+00 0.000000000000000000e+00 2.000000000000000000e+01
7.868904002999999925e+00 0.000000000000000000e+00 0.000000000000000000e+00 -3.766610170999999951e+00 6.523960649000000167e+00 0.000000000000000000e+00 0.000000000000000000e+00 0.000000000000000000e+00 2.000000000000000000e+01
7.948364189000000302e+00 0.000000000000000000e+00 0.000000000000000000e+00 3.284267086999999918e+00 8.624831348000000730e+00 0.000000000000000000e+00 0.000000000000000000e+00 0.000000000000000000e+00 2.000000000000000000e+01
8.268256082000000617e+00 0.000000000000000000e+00 0.000000000000000000e+00 -3.961537912999999911e+00 6.861585426999999626e+00 0.000000000000000000e+00 0.000000000000000000e+00 0.000000000000000000e+00 2.000000000000000000e+01
7.243818370999999701e+00 0.000000000000000000e+00 0.000000000000000000e+00 2.621278381999999851e+00 6.859131571999999899e+00 0.000000000000000000e+00 0.000000000000000000e+00 0.000000000000000000e+00 2.000000000000000000e+01
7.431574816000000361e+00 0.000000000000000000e+00 0.000000000000000000e+00 2.379271134000000121e+00 6.425944748000000040e+00 0.000000000000000000e+00 0.000000000000000000e+00 0.000000000000000000e+00 2.000000000000000000e+01
7.002135900999999940e+00 0.000000000000000000e+00 0.000000000000000000e+00 2.450098323999999828e+00 6.617235098000000093e+00 0.000000000000000000e+00 0.000000000000000000e+00 0.000000000000000000e+00 2.000000000000000000e+01
8.101335471000000510e+00 0.000000000000000000e+00 0.000000000000000000e+00 2.851242084999999982e+00 7.871262158000000397e+00 0.000000000000000000e+00 0.000000000000000000e+00 0.000000000000000000e+00 2.000000000000000000e+01
7.938473264999999834e+00 0.000000000000000000e+00 0.000000000000000000e+00 -3.872438738000000047e+00 6.707261117999999911e+00 0.000000000000000000e+00 0.000000000000000000e+00 0.000000000000000000e+00 2.000000000000000000e+01
1.663323619599999859e+01 0.000000000000000000e+00 0.000000000000000000e+00 -3.880087136999999853e+00 6.720508534000000367e+00 0.000000000000000000e+00 0.000000000000000000e+00 0.000000000000000000e+00 2.000000000000000000e+01
1.525999530500000034e+01 0.000000000000000000e+00 0.000000000000000000e+00 -3.918651504000000063e+00 6.787303983000000152e+00 0.000000000000000000e+00 0.000000000000000000e+00 0.000000000000000000e+00 2.000000000000000000e+01
7.818080057000000416e+00 0.000000000000000000e+00 0.000000000000000000e+00 3.697380023000000016e+00 9.709709438999999165e+00 0.000000000000000000e+00 0.000000000000000000e+00 0.000000000000000000e+00 2.000000000000000000e+01
1.855688270399999951e+01 0.000000000000000000e+00 0.000000000000000000e+00 -3.690966518000000196e+00 6.392941989999999741e+00 0.000000000000000000e+00 0.000000000000000000e+00 0.000000000000000000e+00 2.000000000000000000e+01
7.732630061000000055e+00 0.000000000000000000e+00 0.000000000000000000e+00 -4.256098115000000348e+00 7.371778697999999963e+00 0.000000000000000000e+00 0.000000000000000000e+00 0.000000000000000000e+00 2.000000000000000000e+01
8.115966112000000621e+00 0.000000000000000000e+00 0.000000000000000000e+00 2.292563302000000025e+00 6.191763896000000322e+00 0.000000000000000000e+00 0.000000000000000000e+00 0.000000000000000000e+00 2.000000000000000000e+01
8.568932250999999667e+00 0.000000000000000000e+00 0.000000000000000000e+00 2.664483138000000029e+00 7.355687333999999744e+00 0.000000000000000000e+00 0.000000000000000000e+00 0.000000000000000000e+00 2.000000000000000000e+01
7.097159768000000035e+00 0.000000000000000000e+00 0.000000000000000000e+00 -3.666812558000000166e+00 6.351106101000000059e+00 0.000000000000000000e+00 0.000000000000000000e+00 0.000000000000000000e+00 2.000000000000000000e+01
1.825715705900000074e+01 0.000000000000000000e+00 0.000000000000000000e+00 -3.687471539000000131e+00 6.386888508000000186e+00 0.000000000000000000e+00 0.000000000000000000e+00 0.000000000000000000e+00 2.000000000000000000e+01
8.205613893000000658e+00 0.000000000000000000e+00 0.000000000000000000e+00 3.763812421999999991e+00 9.884167915000000804e+00 0.000000000000000000e+00 0.000000000000000000e+00 0.000000000000000000e+00 2.000000000000000000e+01
8.522265035000000211e+00 0.000000000000000000e+00 0.000000000000000000e+00 -4.105838067999999730e+00 7.111520643999999614e+00 0.000000000000000000e+00 0.000000000000000000e+00 0.000000000000000000e+00 2.000000000000000000e+01
8.251354407999999196e+00 0.000000000000000000e+00 0.000000000000000000e+00 -3.792524978999999963e+00 6.568846416000000410e+00 0.000000000000000000e+00 0.000000000000000000e+00 0.000000000000000000e+00 2.000000000000000000e+01
7.708031832999999722e+00 0.000000000000000000e+00 0.000000000000000000e+00 2.322548325000000080e+00 6.272747563000000248e+00 0.000000000000000000e+00 0.000000000000000000e+00 0.000000000000000000e+00 2.000000000000000000e+01
1.734024368800000104e+01 0.000000000000000000e+00 0.000000000000000000e+00 -3.487574570000000040e+00 6.040656776999999700e+00 0.000000000000000000e+00 0.000000000000000000e+00 0.000000000000000000e+00 2.000000000000000000e+01
7.732477639999999930e+00 0.000000000000000000e+00 0.000000000000000000e+00 2.342469427000000159e+00 6.326550554999999854e+00 0.000000000000000000e+00 0.000000000000000000e+00 0.000000000000000000e+00 2.000000000000000000e+01
7.844247264999999913e+00 0.000000000000000000e+00 0.000000000000000000e+00 -4.286645265999999843e+00 7.424687919000000136e+00 0.000000000000000000e+00 0.000000000000000000e+00 0.000000000000000000e+00 2.000000000000000000e+01
8.187652771999999857e+00 0.000000000000000000e+00 0.000000000000000000e+00 -3.935744941999999913e+00 6.816910685999999941e+00 0.000000000000000000e+00 0.000000000000000000e+00 0.000000000000000000e+00 2.000000000000000000e+01
1.506403840800000005e+01 0.000000000000000000e+00 0.000000000000000000e+00 -3.643151865000000100e+00 6.310124575999999763e+00 0.000000000000000000e+00 0.000000000000000000e+00 0.000000000000000000e+00 2.000000000000000000e+01
9.106573302999999342e+00 0.000000000000000000e+00 0.000000000000000000e+00 -3.904087627000000005e+00 6.762078605000000131e+00 0.000000000000000000e+00 0.000000000000000000e+00 0.000000000000000000e+00 2.000000000000000000e+01
1.521500485299999994e+01 0.000000000000000000e+00 0.000000000000000000e+00 -3.827585385999999978e+00 6.629572826999999613e+00 0.000000000000000000e+00 0.000000000000000000e+00 0.000000000000000000e+00 2.000000000000000000e+01
8.516805262000000099e+00 0.000000000000000000e+00 0.000000000000000000e+00 -3.672766327999999803e+00 6.361418333999999675e+00 0.000000000000000000e+00 0.000000000000000000e+00 0.000000000000000000e+00 2.000000000000000000e+01
7.961388480000000101e+00 0.000000000000000000e+00 0.000000000000000000e+00 -4.107702418999999772e+00 7.114749795999999904e+00 0.000000000000000000e+00 0.000000000000000000e+00 0.000000000000000000e+00 2.000000000000000000e+01
8.189592834000000821e+00 0.000000000000000000e+00 0.000000000000000000e+00 -4.171753901999999847e+00 7.225690225000000133e+00 0.000000000000000000e+00 0.000000000000000000e+00 0.000000000000000000e+00 2.000000000000000000e+01
1.011458942700000030e+01 0.000000000000000000e+00 0.000000000000000000e+00 -3.846262878000000107e+00 6.661923194999999964e+00 0.000000000000000000e+00 0.000000000000000000e+00 0.000000000000000000e+00 2.000000000000000000e+01
1.146959048999999986e+01 0.000000000000000000e+00 0.000000000000000000e+00 2.533076961999999988e+00 6.668937634999999808e+00 0.000000000000000000e+00 0.000000000000000000e+00 0.000000000000000000e+00 2.000000000000000000e+01
6.889579859000000361e+00 0.000000000000000000e+00 0.000000000000000000e+00 2.661030015000000137e+00 6.963150162999999893e+00 0.000000000000000000e+00 0.000000000000000000e+00 0.000000000000000000e+00 2.000000000000000000e+01
7.290524633000000421e+00 0.000000000000000000e+00 0.000000000000000000e+00 2.611500513000000190e+00 6.833545701000000250e+00 0.000000000000000000e+00 0.000000000000000000e+00 0.000000000000000000e+00 2.000000000000000000e+01
7.861713137999999823e+00 0.000000000000000000e+00 0.000000000000000000e+00 -4.031805483000000301e+00 6.983292436000000158e+00 0.000000000000000000e+00 0.000000000000000000e+00 0.000000000000000000e+00 2.000000000000000000e+01
7.388924141000000390e+00 0.000000000000000000e+00 0.000000000000000000e+00 2.326551586999999977e+00 6.283559589000000223e+00 0.000000000000000000e+00 0.000000000000000000e+00 0.000000000000000000e+00 2.000000000000000000e+01
6.991484797000000029e+00 0.000000000000000000e+00 0.000000000000000000e+00 2.831984042999999840e+00 7.410487682000000298e+00 0.000000000000000000e+00 0.000000000000000000e+00 0.000000000000000000e+00 2.000000000000000000e+01
7.485060533000000405e+00 0.000000000000000000e+00 0.000000000000000000e+00 3.719355177999999817e+00 9.767418510000000609e+00 0.000000000000000000e+00 0.000000000000000000e+00 0.000000000000000000e+00 2.000000000000000000e+01
9.329084420999999239e+00 0.000000000000000000e+00 0.000000000000000000e+00 2.858898111999999880e+00 7.526740600000000114e+00 0.000000000000000000e+00 0.000000000000000000e+00 0.000000000000000000e+00 2.000000000000000000e+01
7.113369309000000307e+00 0.000000000000000000e+00 0.000000000000000000e+00 2.491607871999999890e+00 6.519821144999999873e+00 0.000000000000000000e+00 0.000000000000000000e+00 0.000000000000000000e+00 2.000000000000000000e+01
8.064835043000000425e+00 0.000000000000000000e+00 0.000000000000000000e+00 -3.999250437999999797e+00 6.926905439999999636e+00 0.000000000000000000e+00 0.000000000000000000e+00 0.000000000000000000e+00 2.000000000000000000e+01
7.449045572000000170e+00 0.000000000000000000e+00 0.000000000000000000e+00 2.536418872000000047e+00 6.637078643999999805e+00 0.000000000000000000e+00 0.000000000000000000e+00 0.000000000000000000e+00 2.000000000000000000e+01
8.004167989000000816e+00 0.000000000000000000e+00 0.000000000000000000e+00 -4.012269294000000208e+00 6.949454762000000230e+00 0.000000000000000000e+00 0.000000000000000000e+00 0.000000000000000000e+00 2.000000000000000000e+01
8.871238898999999734e+00 0.000000000000000000e+00 0.000000000000000000e+00 2.629910538999999936e+00 6.927876454999999822e+00 0.000000000000000000e+00 0.000000000000000000e+00 0.000000000000000000e+00 2.000000000000000000e+01
1.682447348499999862e+01 0.000000000000000000e+00 0.000000000000000000e+00 -4.079829424999999787e+00 7.066472348999999653e+00 0.000000000000000000e+00 0.000000000000000000e+00 0.000000000000000000e+00 2.000000000000000000e+01
7.666344400999999920e+00 0.000000000000000000e+00 0.000000000000000000e+00 -3.474241988999999808e+00 6.017564068000000432e+00 0.000000000000000000e+00 0.000000000000000000e+00 0.000000000000000000e+00 2.000000000000000000e+01
8.577974121000000451e+00 0.000000000000000000e+00 0.000000000000000000e+00 -3.817236510999999943e+00 6.611648049000000249e+00 0.000000000000000000e+00 0.000000000000000000e+00 0.000000000000000000e+00 2.000000000000000000e+01
8.226201918999999307e+00 0.000000000000000000e+00 0.000000000000000000e+00 -4.151461280000000365e+00 7.190542371000000266e+00 0.000000000000000000e+00 0.000000000000000000e+00 0.000000000000000000e+00 2.000000000000000000e+01
1.696559749800000105e+01 0.000000000000000000e+00 0.000000000000000000e+00 -3.682110101000000135e+00 6.377602225999999597e+00 0.000000000000000000e+00 0.000000000000000000e+00 0.000000000000000000e+00 2.000000000000000000e+01
7.550866590000000045e+00 0.000000000000000000e+00 0.000000000000000000e+00 3.671109280000000030e+00 9.640719698999999920e+00 0.000000000000000000e+00 0.000000000000000000e+00 0.000000000000000000e+00 2.000000000000000000e+01
7.822399890999999883e+00 0.000000000000000000e+00 0.000000000000000000e+00 -3.749058079000000099e+00 6.493559531999999912e+00 0.000000000000000000e+00 0.000000000000000000e+00 0.000000000000000000e+00 2.000000000000000000e+01
7.399490086000000133e+00 0.000000000000000000e+00 0.000000000000000000e+00 2.950017625000000088e+00 7.719347616000000301e+00 0.000000000000000000e+00 0.000000000000000000e+00 0.000000000000000000e+00 2.000000000000000000e+01
8.720820167999999484e+00 0.000000000000000000e+00 0.000000000000000000e+00 -4.063252368999999753e+00 7.037760044999999742e+00 0.000000000000000000e+00 0.000000000000000000e+00 0.000000000000000000e+00 2.000000000000000000e+01
