-6.661775588000000425e+01
-6.673559285000000330e+01
-6.570079162999999767e+01
-6.605394744999999546e+01
-6.522803872000000069e+01
-6.626200746000000663e+01
-6.478665413000000228e+01
-6.700243695000000343e+01
-6.534677865000000452e+01
-6.549154081999999732e+01
-6.675266236000000220e+01
-6.553487624999999639e+01
-6.718987067999999852e+01
-6.690597345000000473e+01
-6.646692783000000304e+01
-6.385119610000000279e+01
-6.490160290000000032e+01
-6.776520924000000434e+01
-6.726460265000000049e+01
-6.669576392999999825e+01
-6.717257789999999318e+01
-6.703920752000000505e+01
-6.563643254999999499e+01
-6.655636230999999725e+01
-6.578294900000000212e+01
-6.432197329000000252e+01
-6.677546232000000259e+01
-6.754749465999999813e+01
-6.542611576000000184e+01
-6.619806717000000162e+01
-6.631452473000000225e+01
-6.505431679000000145e+01
-6.838338493999999912e+01
-6.644432097000000681e+01
-6.431309923999999967e+01
-6.544597231999999565e+01
-6.675404910999999686e+01
-6.803115450999999325e+01
-6.287251014999999654e+01
-6.652237008999999546e+01
-6.546376734999999769e+01
-6.658043317999999999e+01
-6.585805976000000328e+01
-6.582520443999999316e+01
-6.672444068000000073e+01
-6.511110573000000556e+01
-6.625623951000000034e+01
-6.609874231000000577e+01
-6.692304049000000532e+01
-6.565560127999999906e+01
-6.664392501999999752e+01
-6.525517394999999965e+01
-6.622683458999999573e+01
-6.532825753999999563e+01
-6.607754798000000562e+01
-6.553283466000000601e+01
-6.616265703000000542e+01
-6.522307816999999375e+01
-6.450890880999999411e+01
-6.610539203999999813e+01
-6.578757272000000000e+01
-6.677793760999999506e+01
-6.405527241999999433e+01
-6.599985682000000509e+01
-6.584592234000000133e+01
-6.736627423999999564e+01
-6.557138498999999854e+01
-6.546018834999999569e+01
-6.708476333000000125e+01
-6.690833910000000628e+01
-6.676009347000000105e+01
-6.493398453000000359e+01
-6.431975167999999599e+01
-6.663965953000000297e+01
-6.632478369999999757e+01
-6.627000782000000356e+01
-6.388179331999999988e+01
-6.460627392000000668e+01
-6.552681318999999860e+01
-6.442320121999999571e+01
-6.565852169999999433e+01
-6.548954537000000187e+01
-6.533917347999999947e+01
-6.583236168000000532e+01
-6.673780671999999470e+01
-6.633988469000000521e+01
-6.653573713999999484e+01
-6.597814802999999984e+01
-6.569760057999999958e+01
-6.606851507000000367e+01
-6.650417108000000610e+01
-6.675720015999999646e+01
-6.646567874000000131e+01
-6.810867833999999732e+01
-6.697689409000000182e+01
-6.690418617000000268e+01
-6.654428430999999478e+01
-6.759606277000000318e+01
-6.412093620999999644e+01
-6.614338508999999533e+01
