7.397010000000000529e-01 9.597360000000000335e-01 1.141299999999999953e-02 7.179489999999999483e-01 -3.984829999999999761e-01 -3.494869999999999921e-01 -8.876000000000000556e-02 3.127269999999999772e-01 -1.403089999999999893e-01 -1.985929999999999918e-01 -9.314409999999999634e-01 -2.256460000000000132e-01 -2.012790000000000135e-01 -2.862950000000000217e-01 -2.859149999999999747e-01 5.283330000000000526e-01 5.600399999999999823e-01 2.801029999999999909e-01 4.769610000000000238e-01 6.508500000000000396e-02 6.322499999999999787e-01 -6.020020000000000371e-01 4.666120000000000267e-01 1.066379999999999967e-01 -1.361159999999999870e-01 5.915000000000000119e-02 -2.096129999999999938e-01 2.348800000000000054e-01 -4.732299999999999840e-01 1.431203999999999921e+00 -8.177910000000000457e-01 8.284789999999999655e-01 -5.637849999999999806e-01 1.738999999999999990e-01 -3.416359999999999952e-01 1.414676999999999962e+00 -5.464399999999999813e-02 -6.970680000000000209e-01 -3.686760000000000037e-01 -6.001700000000000090e-02 -2.396799999999999972e-02 -4.265709999999999780e-01 3.660590000000000233e-01 3.922410000000000063e-01 -1.385610999999999926e+00 1.752039999999999986e-01 2.547189999999999732e-01 5.358199999999999769e-02 -2.056129999999999902e-01 -4.825800000000000228e-02 4.577590000000000270e-01 -1.454884000000000066e+00 -5.221919999999999895e-01 -3.938749999999999751e-01 6.934960000000000013e-01 4.317300000000000304e-02 3.522759999999999780e-01 -2.867830000000000101e-01 -2.193920000000000037e-01 -3.904159999999999853e-01
5.471200000000000507e-01 1.190770000000000023e-01 2.964680000000000093e-01 -1.625880000000000103e-01 -4.113789999999999947e-01 -1.123507000000000033e+00 5.997730000000000006e-01 1.335596000000000005e+00 2.734980000000000189e-01 2.394020000000000037e-01 -1.883879000000000081e+00 1.088853999999999989e+00 2.160400000000000167e-02 4.763709999999999889e-01 -2.592570000000000152e-01 8.201100000000000056e-02 -1.501538000000000039e+00 -6.027890000000000192e-01 -1.894250000000000100e-01 -1.873710000000000098e-01 -4.976300000000000168e-01 -2.698209999999999775e-01 -1.050192000000000014e+00 7.847480000000000011e-01 6.316920000000000313e-01 1.193980999999999959e+00 -3.783279999999999976e-01 4.483139999999999903e-01 2.349469999999999892e-01 9.086340000000000527e-01 -1.765732999999999997e+00 -3.841209999999999902e-01 -4.312559999999999727e-01 -1.189780000000000004e-01 -4.527209999999999845e-01 2.489560000000000106e-01 -6.689999999999999766e-03 -2.760360000000000036e-01 3.198059999999999792e-01 -1.911420000000000063e-01 6.523630000000000262e-01 -7.149910000000000432e-01 -4.681449999999999778e-01 6.487699999999999578e-01 -1.100586000000000064e+00 -2.612820000000000142e-01 3.469320000000000181e-01 2.903209999999999957e-01 -1.750980000000000036e-01 8.906400000000000428e-02 -6.987970000000000015e-01 -2.472139999999999893e-01 -1.961199999999999888e-01 -2.653700000000000156e-02 2.598650000000000126e-01 4.046179999999999777e-01 6.253229999999999622e-01 1.026332999999999940e+00 8.416390000000000260e-01 9.970710000000000406e-01
-1.230129999999999973e-01 -2.112599999999999895e-02 4.664420000000000233e-01 1.012100000000000000e+00 -2.124850000000000072e-01 -1.249360999999999944e+00 5.665440000000000476e-01 1.206941000000000042e+00 -2.179809999999999803e+00 -5.311350000000000238e-01 -1.283252999999999977e+00 1.226970000000000005e-01 -9.902670000000000083e-01 1.234078999999999926e+00 8.169929999999999692e-01 -1.191324000000000050e+00 8.566580000000000306e-01 -4.065349999999999797e-01 6.632310000000000150e-01 1.151283999999999974e+00 9.570619999999999683e-01 -2.092350000000000043e-01 -6.725299999999999612e-01 1.860905999999999949e+00 -3.994949999999999890e-01 6.341510000000000202e-01 2.101280000000000092e-01 -6.395110000000000516e-01 -1.319868999999999959e+00 -5.301209999999999534e-01 -1.160889999999999977e-01 -8.229079999999999728e-01 -4.216119999999999868e-01 -2.297520000000000118e-01 7.142810000000000548e-01 -6.587020000000000097e-01 1.116711000000000009e+00 -6.129269999999999996e-01 5.726809999999999956e-01 8.980650000000000022e-01 -4.703809999999999936e-01 2.149347999999999814e+00 -1.464689999999999881e-01 -8.142599999999999838e-02 -2.702158999999999978e+00 -7.058600000000000430e-01 1.427183000000000090e+00 2.390141999999999989e+00 7.026899999999999813e-02 -4.536220000000000252e-01 -9.333090000000000552e-01 6.294870000000000188e-01 9.382400000000000462e-02 1.986400000000000110e-01 1.813790000000000124e-01 -9.095259999999999456e-01 -3.369659999999999878e-01 1.443649999999999933e-01 -4.583470000000000044e-01 -3.264630000000000032e-01
4.323029999999999928e-01 1.116459000000000090e+00 -5.264710000000000223e-01 -3.125330000000000052e-01 -4.182580000000000187e-01 -2.796359999999999957e-01 1.420468999999999982e+00 -8.993200000000000083e-01 -1.573285999999999962e+00 4.032350000000000101e-01 -4.823299999999999810e-02 2.345849999999999880e-01 9.308500000000000107e-02 -3.584089999999999776e-01 4.966079999999999939e-01 1.290789999999999993e-01 -6.018989999999999618e-01 -1.025810000000000055e-01 -1.136646999999999963e+00 2.075660000000000005e-01 3.060260000000000202e-01 -4.472749999999999782e-01 -4.657259999999999733e-01 -1.855120000000000102e-01 -4.857500000000000012e-02 8.444439999999999724e-01 -5.742949999999999999e-01 -6.909980000000000011e-01 4.177969999999999740e-01 5.000769999999999937e-01 4.978750000000000120e-01 -5.629739999999999744e-01 7.224770000000000358e-01 8.367499999999999938e-02 5.700279999999999792e-01 6.108679999999999666e-01 -3.085249999999999937e-01 -1.267287000000000052e+00 5.052529999999999522e-01 -1.336616999999999944e+00 1.144830000000000014e-01 3.199199999999999960e-02 1.073444000000000065e+00 6.898060000000000302e-01 -5.986129999999999507e-01 -9.984439999999999982e-01 6.200510000000000188e-01 1.174485000000000001e+00 7.680099999999999427e-02 2.409090000000000120e-01 -9.218999999999999764e-03 -3.927740000000000120e-01 3.389809999999999768e-01 -3.261000000000000010e-01 1.308956000000000008e+00 -3.757710000000000217e-01 6.054000000000000353e-03 1.534649999999999903e-01 -1.626479999999999870e-01 -4.127120000000000233e-01
-9.005999999999999561e-01 -7.645170000000000021e-01 -2.436338999999999810e+00 -1.130066000000000015e+00 -8.393200000000000660e-02 5.679760000000000364e-01 3.500719999999999943e-01 -1.630639999999999867e-01 -1.434199999999999919e-01 -4.739729999999999777e-01 -4.281409999999999938e-01 -1.256240000000000134e-01 8.546920000000000073e-01 -4.968380000000000019e-01 -6.726569999999999494e-01 -4.096219999999999861e-01 1.822135999999999978e+00 1.184159999999999935e-01 -1.105906999999999973e+00 1.135841000000000101e+00 -2.285029999999999895e+00 -7.703710000000000280e-01 7.055409999999999737e-01 9.375250000000000528e-01 4.338460000000000094e-01 -1.833700000000000052e-01 -9.023219999999999574e-01 -1.065050000000000024e-01 4.553050000000000153e-01 -8.593469999999999720e-01 -3.123119999999999785e-01 -7.715779999999999861e-01 -2.028359999999999885e-01 5.089059999999999695e-01 3.448039999999999994e-01 4.251300000000000079e-01 -1.745130000000000015e-01 -8.827909999999999924e-01 2.530919999999999837e-01 1.234110000000000040e+00 5.507599999999999996e-02 3.911350000000000104e-01 8.437609999999999832e-01 -1.367049999999999932e-01 2.254591000000000012e+00 -1.621696999999999944e+00 5.164630000000000054e-01 2.923479999999999968e-01 4.072950000000000181e-01 1.224259999999999932e-01 6.291719999999999535e-01 6.816719999999999446e-01 4.087580000000000102e-01 1.036080000000000056e-01 1.697241000000000000e+00 -1.103636000000000061e+00 1.652692999999999968e+00 -6.028999999999999637e-03 -5.517779999999999907e-01 1.887999999999999921e-03
-6.222010000000000041e-01 2.080239999999999867e-01 -1.524780000000000024e-01 1.139570999999999890e+00 5.427370000000000250e-01 7.878859999999999753e-01 1.423872000000000027e+00 1.056187999999999905e+00 2.018510000000000026e-01 4.848709999999999964e-01 -7.090570000000000483e-01 1.150214000000000070e+00 -2.357210000000000139e-01 1.386650000000000105e-01 -5.684540000000000148e-01 -1.708598999999999979e+00 -8.254500000000000171e-01 -1.140797999999999979e+00 1.218871000000000038e+00 6.665419999999999678e-01 -7.950220000000000065e-01 4.016419999999999990e-01 -3.010587000000000124e+00 -1.423718000000000039e+00 -2.478110000000000035e-01 9.300890000000000546e-01 -9.632429999999999604e-01 -3.387830000000000008e-01 -1.812934999999999963e+00 1.029300000000000007e-02 -5.066519999999999913e-01 -4.342100000000000126e-02 7.190469999999999917e-01 -5.705170000000000519e-01 -1.106819999999999915e+00 -5.378600000000000048e-02 3.190760000000000263e-01 -1.660290000000000099e-01 -5.078559999999999741e-01 8.080580000000000540e-01 1.394487999999999950e+00 -1.206663999999999959e+00 -1.837660000000000127e-01 -4.159410000000000052e-01 7.178020000000000511e-01 -7.755840000000000511e-01 -5.865599999999999981e-02 -4.750349999999999850e-01 -4.000900000000000012e-01 -4.879160000000000164e-01 8.596460000000000212e-01 -3.192280000000000117e-01 -3.053529999999999855e-01 1.150741999999999932e+00 -2.627809999999999868e-01 4.490268999999999622e+00 1.809352000000000071e+00 3.757719999999999949e-01 -4.848390000000000200e-01 -1.197779999999999956e-01
7.154310000000000391e-01 -3.394360000000000155e-01 9.121500000000000441e-02 4.465330000000000132e-01 2.207500000000000018e-01 -1.488750999999999935e+00 7.843500000000000472e-02 5.979130000000000278e-01 4.963359999999999994e-01 9.048059999999999992e-01 7.099339999999999540e-01 1.812700000000000075e-02 1.337409999999999988e-01 1.913360000000000061e-01 4.715090000000000114e-01 -7.600160000000000249e-01 3.812659999999999938e-01 -2.480829999999999980e-01 -7.310560000000000391e-01 -8.390400000000000080e-01 1.090044000000000013e+00 -2.108919999999999961e-01 4.526350000000000096e-01 1.083415000000000017e+00 2.792149999999999910e-01 9.515789999999999527e-01 8.257339999999999680e-01 -1.766409999999999925e-01 -9.473129999999999606e-01 2.653920000000000168e-01 4.499609999999999999e-01 2.362519999999999898e-01 2.432870000000000033e-01 -1.160199999999999947e-02 2.632500000000000118e-02 -1.540891999999999928e+00 9.967970000000000441e-01 -4.996880000000000210e-01 6.029259999999999620e-01 -8.686840000000000117e-01 -4.080770000000000231e-01 4.859899999999999776e-01 -1.092244999999999910e+00 -8.549199999999999855e-02 -4.383599999999999997e-02 8.199349999999999694e-01 -1.258291999999999966e+00 5.246960000000000512e-01 -4.875299999999999773e-02 1.291630000000000000e-01 -1.782420000000000115e-01 -4.108379999999999810e-01 -2.336900000000000088e-01 -1.432746999999999993e+00 3.194969999999999755e-01 3.952189999999999870e-01 -8.822349999999999914e-01 -8.336240000000000316e-01 3.186550000000000216e-01 -3.838849999999999763e-01
9.458500000000000241e-02 6.949619999999999687e-01 8.535909999999999886e-01 6.939729999999999510e-01 -1.026637000000000022e+00 -2.624199999999999866e-01 1.674150000000000083e-01 8.540799999999999503e-01 -9.269389999999999574e-01 1.291673999999999989e+00 -3.273590000000000111e-01 7.229090000000000238e-01 -9.710100000000000675e-02 2.497119999999999895e-01 -1.948300000000000032e-01 -2.060269999999999879e-01 -1.168668000000000040e+00 -8.477179999999999715e-01 -1.207720000000000043e-01 -8.147790000000000310e-01 4.640400000000000080e-02 -9.486400000000000388e-01 4.488639999999999852e-01 -2.886650000000000049e-01 -3.560309999999999864e-01 -5.942429999999999657e-01 5.109650000000000025e-01 -6.363699999999999912e-02 -1.492677999999999949e+00 -1.139000000000000012e-01 2.859349999999999947e-01 1.313871999999999929e+00 -1.370784999999999920e+00 -6.695299999999999585e-01 -1.802370000000000083e-01 -2.029200000000000101e-02 -2.859869999999999912e-01 7.263760000000000217e-01 9.673620000000000552e-01 1.029474999999999918e+00 4.615600000000000258e-02 9.758850000000000025e-01 -9.251800000000000024e-01 2.511070000000000246e-01 -7.475920000000000343e-01 -1.063285999999999953e+00 -3.388109999999999733e-01 1.208299999999999999e-02 4.721589999999999954e-01 4.173199999999999826e-02 2.280899999999999872e-01 -3.273800000000000043e-01 5.303900000000000281e-01 8.397000000000000297e-02 5.259730000000000238e-01 5.791349999999999554e-01 1.135150000000000048e-01 5.023819999999999952e-01 2.070269999999999888e-01 2.583659999999999846e-01
8.762240000000000029e-01 2.278070000000000095e-01 2.322160000000000057e-01 8.631900000000000683e-02 -3.345969999999999778e-01 -7.217209999999999459e-01 -5.166269999999999474e-01 -1.611410000000000065e-01 -9.069880000000000164e-01 -6.533449999999999536e-01 -1.304210000000000091e+00 4.156699999999999978e-02 -5.845470000000000388e-01 -1.828089999999999993e-01 -4.245280000000000165e-01 9.986200000000000632e-02 -6.147820000000000507e-01 -5.452240000000000419e-01 1.064845000000000041e+00 9.078399999999999803e-01 4.482099999999999973e-02 7.519730000000000025e-01 -3.221919999999999784e-01 -1.830387999999999904e+00 4.664479999999999738e-01 3.279699999999999976e-02 7.438789999999999569e-01 5.155340000000000478e-01 8.345799999999999885e-01 -3.867600000000000204e-02 -6.862610000000000099e-01 2.341110000000000135e-01 -4.612010000000000276e-01 -9.315900000000000569e-02 2.653220000000000023e-01 8.320859999999999923e-01 -6.364649999999999475e-01 -2.857419999999999960e-01 -3.829819999999999891e-01 5.805369999999999697e-01 -7.193220000000000169e-01 -3.090490000000000181e-01 -1.010917000000000066e+00 3.126479999999999815e-01 7.806629999999999958e-01 4.848930000000000184e-01 6.191159999999999997e-01 2.113669999999999993e-01 -4.976070000000000215e-01 -3.005129999999999746e-01 3.018200000000000049e-02 9.585909999999999709e-01 7.702299999999999702e-01 1.655712999999999990e+00 -1.163040000000000046e-01 -3.130200000000000204e-01 -3.935679999999999734e-01 -1.089995999999999965e+00 3.338769999999999794e-01 1.441832000000000003e+00
3.908749999999999725e-01 -4.615040000000000253e-01 9.435989999999999656e-01 -3.682139999999999858e-01 -8.068799999999999584e-02 -7.057299999999999685e-02 -9.324440000000000506e-01 1.161305999999999949e+00 2.243050000000000044e-01 1.182517000000000040e+00 8.601809999999999734e-01 -7.759949999999999903e-01 -2.306439999999999879e-01 -3.837340000000000195e-01 2.719460000000000210e-01 7.797330000000000094e-01 6.776429999999999954e-01 -1.690768999999999966e+00 1.500399999999999998e-02 3.289399999999999963e-02 1.581039999999999945e-01 8.793189999999999618e-01 3.616460000000000230e-01 -9.112940000000000484e-01 4.954109999999999903e-01 -7.952909999999999702e-01 -3.066499999999999782e-01 -3.337269999999999959e-01 -1.429950000000000110e-01 -7.315559999999999841e-01 4.989680000000000226e-01 6.942909999999999915e-01 3.531600000000000017e-02 -1.008691000000000004e+00 -2.019871000000000194e+00 1.464062999999999892e+00 1.625379999999999880e-01 7.968999999999999695e-02 9.636759999999999771e-01 5.452400000000000302e-02 -2.140320000000000000e-01 7.131060000000000176e-01 -1.473289999999999877e-01 4.247949999999999782e-01 1.221109999999999973e-01 -3.365589999999999971e-01 -5.397260000000000391e-01 7.105000000000000204e-02 6.517990000000000173e-01 1.290987000000000107e+00 -2.443599999999999939e-02 -1.127709999999999962e-01 -5.192280000000000229e-01 1.301650000000000029e-01 -9.000580000000000247e-01 1.175994999999999902e+00 -1.038051999999999975e+00 -7.402520000000000211e-01 -1.602357999999999949e+00 4.518849999999999811e-01
-1.522621000000000002e+00 -1.057142999999999944e+00 3.099259999999999793e-01 2.378790000000000071e-01 2.565740000000000243e-01 8.528590000000000337e-01 1.721460999999999908e+00 -3.637560000000000238e-01 1.185494999999999965e+00 -2.035089999999999955e-01 1.405969999999999998e-01 1.924039999999999917e-01 -2.695009999999999906e-01 -1.380271000000000026e+00 5.602270000000000305e-01 -1.278772000000000020e+00 -2.289717000000000002e+00 -5.974969999999999448e-01 1.433972999999999942e+00 2.005621000000000098e+00 -1.012717000000000089e+00 8.744079999999999631e-01 6.590329999999999799e-01 -1.375023000000000106e+00 1.334760000000000113e-01 3.019540000000000002e-01 4.971599999999999908e-01 -5.542719999999999869e-01 6.660009999999999541e-01 -6.719739999999999602e-01 -9.759600000000000219e-02 -5.379880000000000217e-01 -8.679909999999999570e-01 4.622870000000000035e-01 9.439520000000000133e-01 -8.689449999999999674e-01 9.653599999999999681e-02 -2.871299999999999963e-01 4.898310000000000164e-01 -7.096649999999999903e-01 8.503669999999999840e-01 -3.878119999999999901e-01 1.349329999999999974e-01 -9.518159999999999954e-01 1.827779999999999960e-01 -3.503399999999999848e-01 3.276939999999999853e-01 -6.468799999999999550e-02 -2.831040000000000223e-01 -2.863999999999999792e-03 5.353790000000000493e-01 -1.317552000000000056e+00 -4.743419999999999859e-01 1.346387999999999918e+00 4.263970000000000260e-01 1.326143999999999989e+00 -8.837699999999999723e-02 1.065584000000000087e+00 -1.329089999999999994e-01 -2.174210000000000031e-01
4.325930000000000053e-01 -1.120511999999999952e+00 1.345690000000000053e+00 4.073320000000000274e-01 1.361728999999999967e+00 -5.562199999999999783e-02 7.713569999999999593e-01 -7.736499999999999488e-01 -1.720773000000000108e+00 5.842300000000000271e-01 -7.841839999999999922e-01 -1.090935999999999906e+00 -1.426179999999999948e-01 8.040479999999999849e-01 6.591310000000000224e-01 -6.475969999999999782e-01 -1.239620000000000027e-01 -1.231124000000000107e+00 -9.138810000000000544e-01 -7.561250000000000471e-01 4.847270000000000190e-01 -3.539740000000000109e-01 6.623449999999999616e-01 3.377789999999999959e-01 2.773410000000000042e-01 7.108280000000000154e-01 7.107670000000000377e-01 -2.718399999999999983e-02 1.524449999999999972e-01 4.872819999999999929e-01 -6.153990000000000293e-01 1.341070000000000040e-01 -5.211329999999999574e-01 -2.328570000000000084e-01 -8.658100000000000518e-02 1.909430000000000016e-01 8.515399999999999359e-02 3.864310000000000245e-01 -4.972869999999999790e-01 4.274259999999999726e-01 -9.353010000000000490e-01 2.979629999999999779e-01 2.580210000000000004e-01 9.037299999999999500e-02 5.407089999999999952e-01 -3.265500000000000347e-02 6.571639999999999704e-01 2.285020000000000107e-01 1.755379999999999996e-01 2.317510000000000125e-01 -8.393730000000000357e-01 -1.145064000000000082e+00 7.196200000000000374e-01 1.893308999999999909e+00 5.832880000000000287e-01 -3.783580000000000276e-01 -6.978830000000000311e-01 1.089470000000000022e-01 -9.521659999999999568e-01 -5.226720000000000255e-01
5.033459999999999601e-01 1.477039999999999909e+00 9.529469999999999885e-01 2.945960000000000245e-01 4.773789999999999978e-01 2.753390000000000004e-01 -9.566529999999999756e-01 -3.287209999999999854e-01 1.215894000000000030e+00 2.668650000000000189e-01 -1.331000000000000065e-02 7.010039999999999605e-01 -4.553200000000000303e-02 -5.044159999999999755e-01 5.960900000000000226e-02 -2.109722999999999793e+00 4.403859999999999997e-01 7.693440000000000278e-01 9.545810000000000128e-01 -8.575430000000000552e-01 -7.950460000000000305e-01 4.526680000000000148e-01 5.124830000000000219e-01 1.098665000000000003e+00 -4.474659999999999749e-01 6.167719999999999869e-01 -3.483760000000000190e-01 6.606499999999999873e-02 8.776680000000000037e-01 2.863660000000000094e-01 1.784270000000000023e-01 -7.821439999999999504e-01 5.413890000000000091e-01 -6.062629999999999963e-01 -1.686776999999999971e+00 -1.084802999999999962e+00 6.639610000000000234e-01 -1.442360000000000031e-01 -3.061429999999999985e-01 1.766396999999999995e+00 -3.041010000000000102e-01 -1.000132999999999939e+00 -3.625399999999999734e-01 -8.583020000000000094e-01 -3.543669999999999876e-01 -3.805020000000000069e-01 -8.741520000000000401e-01 -4.161340000000000039e-01 -1.277776999999999941e+00 5.462569999999999926e-01 -6.703900000000000414e-01 2.331890000000000074e-01 -8.559400000000000341e-02 -8.469630000000000214e-01 2.856890000000000263e-01 4.952820000000000000e-01 7.908250000000000002e-01 5.206739999999999702e-01 9.960280000000000244e-01 -8.690280000000000227e-01
7.838929999999999509e-01 4.823370000000000157e-01 2.982279999999999931e-01 -9.078920000000000323e-01 -1.136962999999999946e+00 2.293260000000000021e-01 -8.517369999999999663e-01 4.219240000000000212e-01 -6.934540000000000148e-01 -4.587640000000000051e-01 -3.011300000000000088e-02 -1.169140000000000040e-01 -1.872439999999999938e-01 4.969089999999999896e-01 -6.034030000000000227e-01 -2.149964999999999904e+00 -8.858850000000000335e-01 -2.200791000000000164e+00 1.315714999999999968e+00 -2.584640000000000271e-01 -1.961549999999999960e-01 -8.819110000000000005e-01 3.738500000000000156e-02 -1.796051000000000064e+00 -2.593340000000000090e-01 2.792490000000000250e-01 6.805729999999999835e-01 3.605689999999999729e-01 3.299250000000000238e-01 -5.207690000000000374e-01 1.531470000000000053e-01 -3.216769999999999907e-01 -1.667929999999999968e-01 8.234999999999999265e-03 -7.247050000000000436e-01 5.111660000000000093e-01 2.754685999999999968e+00 8.441720000000000335e-01 1.337835000000000107e+00 1.016264000000000056e+00 7.457219999999999960e-01 1.157783999999999924e+00 -1.361590000000000023e-01 5.687099999999999794e-02 -5.519399999999999862e-01 2.167669999999999875e-01 -1.581400000000000028e-01 -4.936920000000000197e-01 -7.759000000000000272e-03 -4.866050000000000098e-01 -4.393569999999999975e-01 1.892739999999999978e-01 2.535240000000000271e-01 1.625696999999999948e+00 -1.306218000000000101e+00 -9.967199999999999671e-02 5.275440000000000129e-01 3.484320000000000195e-01 1.542040000000000077e-01 1.411167000000000060e+00
1.223790000000000017e-01 -3.468729999999999869e-01 8.731800000000000672e-02 -2.164790000000000048e-01 2.274059999999999970e-01 -1.988000000000000184e-03 9.621720000000000272e-01 3.136399999999999744e-01 5.881150000000000544e-01 -4.185429999999999984e-01 -8.135599999999999499e-01 2.692149999999999821e-01 9.262080000000000313e-01 -3.197099999999999942e-01 4.929669999999999885e-01 1.037269999999999998e-01 -1.058122999999999925e+00 1.400059999999999916e-01 1.367520000000000124e-01 9.069989999999999997e-01 7.090670000000000028e-01 1.575300000000000034e-01 1.126540000000000097e+00 6.461449999999999694e-01 2.008260000000000045e-01 1.599518999999999913e+00 -3.112409999999999899e-01 -5.095119999999999649e-01 3.603439999999999976e-01 5.217349999999999488e-01 -8.841390000000000082e-01 4.926659999999999928e-01 1.166350000000000026e-01 6.294980000000000020e-01 -1.207818999999999976e+00 3.408249999999999891e-01 -3.704370000000000163e-01 1.003235000000000099e+00 9.075900000000000634e-02 -3.856550000000000256e-01 -9.272420000000000107e-01 -5.971140000000000336e-01 8.409320000000000128e-01 -1.605401999999999996e+00 -3.205779999999999741e-01 -1.903390000000000082e-01 -3.314869999999999761e-01 -1.146220000000000017e+00 -8.856509999999999661e-01 -3.417149999999999910e-01 2.337200000000000111e-01 -4.891559999999999797e-01 4.403400000000000092e-01 -3.106679999999999997e-01 -3.726200000000000345e-02 1.698320000000000107e-01 -1.111026999999999987e+00 3.071499999999999786e-01 3.114120000000000221e-01 -4.376709999999999767e-01
5.770000000000000389e-04 -2.654810000000000225e-01 1.943139999999999867e-01 -2.356135000000000090e+00 -2.010502999999999929e+00 -4.651899999999999785e-02 -3.167369999999999908e-01 -2.067950000000000066e-01 -6.967919999999999670e-01 8.958749999999999769e-01 -3.643330000000000179e-01 -3.265049999999999897e-01 3.551130000000000120e-01 -2.126000000000000112e-02 -1.669800000000000104e-02 -4.168899999999999828e-01 1.850739999999999885e-01 3.021079999999999877e-01 -1.061334000000000000e+00 -5.815590000000000481e-01 -1.562419999999999920e-01 9.115450000000000497e-01 -2.304400000000000059e-01 5.988269999999999982e-01 -1.004010000000000041e-01 3.654680000000000151e-01 2.926899999999999988e-02 -8.293179999999999996e-01 5.113670000000000160e-01 -6.427000000000000421e-03 -2.241849999999999954e-01 7.256869999999999710e-01 4.719200000000000061e-01 -2.763920000000000265e-01 7.810899999999999788e-02 -1.733159999999999978e-01 9.822549999999999892e-01 -2.426999999999999991e-01 -4.452909999999999924e-01 -2.401119999999999921e-01 1.372700000000000031e+00 -5.733059999999999823e-01 -3.186899999999999733e-01 -3.350699999999999790e-01 2.827470000000000261e-01 2.250185000000000102e+00 7.155280000000000529e-01 3.884529999999999927e-01 -4.455219999999999736e-01 9.217969999999999775e-01 3.118250000000000188e-01 3.901580000000000048e-01 -5.068559999999999732e-01 -5.520499999999999713e-02 4.954900000000000276e-02 -3.684000000000000209e-03 5.938500000000000029e-02 7.504610000000000447e-01 -1.070480000000000043e-01 -1.425470000000000070e-01
8.905299999999999327e-02 -1.559487999999999985e+00 1.455305999999999989e+00 -1.751610000000000111e-01 -1.561240000000000128e-01 6.630599999999999827e-01 1.251408000000000076e+00 -6.912730000000000263e-01 7.271809999999999663e-01 -8.838479999999999670e-01 3.779685000000000183e+00 3.825999999999999974e-03 3.033440000000000025e-01 -9.905599999999999961e-01 -2.033167000000000169e+00 4.234240000000000226e-01 -5.983709999999999862e-01 3.210859999999999825e-01 -1.496064000000000060e+00 3.004899999999999793e-01 1.261460000000000026e+00 5.084710000000000063e-01 -2.478480000000000127e-01 1.054009999999999947e-01 -1.286856000000000000e+00 1.463197999999999999e+00 -1.089372999999999925e+00 -1.057789999999999980e-01 -2.832950000000000190e-01 7.243829999999999991e-01 5.772429999999999506e-01 -3.274223000000000106e+00 -1.157929999999999932e-01 1.231162000000000090e+00 3.571799999999999975e-02 2.357289999999999941e-01 -6.909000000000000211e-03 7.596589999999999732e-01 -2.112739999999999896e-01 -1.061055000000000081e+00 2.610799999999999788e-01 -4.429440000000000044e-01 1.553209999999999869e-01 -9.030000000000000526e-02 -2.718264000000000014e+00 2.997879999999999989e-01 3.190450000000000230e-01 4.313409999999999744e-01 3.671209999999999751e-01 9.612400000000000111e-02 -7.861209999999999587e-01 4.591580000000000106e-01 1.698730000000000073e+00 9.716089999999999449e-01 -4.596140000000000225e-01 -1.633626999999999940e+00 8.075039999999999996e-01 -1.902089999999999892e-01 8.113799999999999901e-01 -3.109529999999999794e-01
-6.169540000000000024e-01 7.203299999999999981e-02 7.387399999999999523e-02 4.627330000000000054e-01 5.669629999999999947e-01 -9.640300000000000258e-02 -8.254040000000000266e-01 2.147200000000000220e+00 -6.185000000000000497e-01 6.709910000000000041e-01 -1.306664999999999965e+00 -5.088499999999999968e-02 -8.445909999999999807e-01 6.624900000000000233e-02 1.117677999999999949e+00 -4.428719999999999879e-01 -4.780010000000000092e-01 -4.524150000000000116e-01 2.223376000000000019e+00 6.000419999999999643e-01 -1.630919999999999925e+00 6.597819999999999796e-01 -9.619290000000000340e-01 5.740669999999999940e-01 5.113130000000000175e-01 1.861309999999999909e-01 -1.320540000000000047e-01 -6.062990000000000324e-01 -5.840119999999999756e-01 3.601699999999999902e-01 2.134320000000000106e-01 -4.336880000000000179e-01 -2.117880000000000040e-01 1.504220000000000002e-01 -3.470969999999999889e-01 -2.365099999999999841e-02 6.372489999999999544e-01 3.839460000000000095e-01 -1.560090000000000088e-01 4.647000000000000089e-03 1.141504999999999992e+00 5.111780000000000213e-01 -4.680500000000000216e-01 -1.016094000000000053e+00 -6.087200000000000388e-01 -1.736449999999999938e-01 1.679529999999999912e-01 6.963099999999999845e-02 1.233786000000000049e+00 9.559099999999999542e-02 -2.001400000000000123e-01 1.826679999999999970e-01 -2.781499999999999945e-02 2.997549999999999937e-01 -3.107416000000000178e+00 9.593000000000000138e-02 7.307780000000000387e-01 1.348330000000000084e-01 -3.682409999999999850e-01 4.443540000000000267e-01
-1.516539000000000081e+00 -3.154540000000000122e-01 1.349514000000000102e+00 -3.306890000000000107e-01 -6.721999999999999677e-03 4.818100000000000160e-02 1.137586999999999904e+00 1.321589999999999987e-01 6.163650000000000517e-01 1.537943999999999978e+00 -5.124800000000000466e-01 -1.142760000000000026e-01 9.713199999999999612e-02 1.206242000000000036e+00 -1.286730000000000096e-01 2.258055999999999841e+00 -1.673823999999999979e+00 5.176933000000000007e+00 2.895710000000000228e-01 6.316089999999999760e-01 2.581419999999999826e-01 4.252690000000000081e-01 -5.516360000000000152e-01 1.370352000000000015e+00 4.171070000000000055e-01 5.190299999999999775e-02 1.936070000000000013e-01 1.188410000000000022e-01 4.364620000000000166e-01 1.888730000000000131e-01 -9.310899999999999732e-02 -9.828789999999999472e-01 -1.163621999999999934e+00 -4.813040000000000096e-01 7.747400000000000120e-02 -3.488160000000000149e-01 1.486760000000000026e-01 -5.613300000000000234e-02 4.920959999999999779e-01 6.506499999999999784e-02 5.903969999999999496e-01 -7.882489999999999775e-01 1.612139999999999962e-01 1.670079999999999898e-01 -3.424079999999999901e-01 -2.776921999999999890e+00 1.827152000000000109e+00 -4.222540999999999656e+00 -4.551950000000000163e-01 1.852459999999999940e-01 -3.502379999999999938e-01 -4.050940000000000096e-01 -3.027659999999999796e-01 -4.754900000000000237e-01 -6.973369999999999846e-01 -6.252029999999999532e-01 -5.042079999999999895e-01 9.972599999999999520e-02 -2.785560000000000258e-01 -1.255541999999999936e+00