-7.850782581995533249e+00 3.840735648406762071e+00 -2.734472408877257621e+00 3.840735648406762071e+00 -5.991067241388897457e+00 -1.477214872822808278e+00 -2.734472408877257621e+00 -1.477214872822808278e+00 -5.214747680656110163e+00
-2.169436096090766597e+00 5.374324502903514045e+00 3.759453007862625373e-01 5.374324502903514045e+00 -1.110025079428352690e+01 -3.827417929695658749e+00 3.759453007862625373e-01 -3.827417929695658749e+00 -4.838849905332116563e+00
3.973171720067312229e+00 4.140068195096028525e+00 2.609460965943968702e+00 4.140068195096028525e+00 -4.806708168676241538e-02 -1.042880501022253492e+00 2.609460965943968702e+00 -1.042880501022253492e+00 1.164010247559216715e+01
-1.164356307353837749e+01 -3.321079518892278593e+00 -8.914387899097230006e-02 -3.321079518892278593e+00 -1.045796828401759093e+01 2.442620174454802395e+00 -8.914387899097230006e-02 2.442620174454802395e+00 -6.802874520132322189e+00
6.262303070453147935e-01 -1.202746073979875652e+00 -7.460187944442354668e-01 -1.202746073979875652e+00 -2.869511227481394311e+00 4.614443975678224064e+00 -7.460187944442354668e-01 4.614443975678224064e+00 8.518112856844558323e+00
2.930637534644383813e+00 2.400444468720993374e+00 -5.019315256747795218e+00 2.400444468720993374e+00 -2.669972909483845136e+00 3.695704602415945228e+00 -5.019315256747795218e+00 3.695704602415945228e+00 -2.059204679645062708e+00
-1.446989465220499094e+00 7.316980830139981906e-01 -2.040520259100369937e+00 7.316980830139981906e-01 -9.976089550966142028e+00 3.995195624996735528e+00 -2.040520259100369937e+00 3.995195624996735528e+00 -4.893008229800743791e+00
3.428010845826424263e-02 5.944067519691281554e+00 -4.787141774622629686e-01 5.944067519691281554e+00 2.620034551698667169e+00 3.913257226366239738e+00 -4.787141774622629686e-01 3.913257226366239738e+00 1.859807545451904520e+00
-1.334948396811872584e+01 -7.040814030805431223e-01 -4.133493591340556605e+00 -7.040814030805431223e-01 -1.233207751974022059e+01 2.359158744117861861e+00 -4.133493591340556605e+00 2.359158744117861861e+00 -3.539434505160027555e+00
3.752822699521520367e+00 5.106481617996601940e+00 -1.160338021262591557e+00 5.106481617996601940e+00 -3.578483149740778746e+00 -1.835779818880384884e+00 -1.160338021262591557e+00 -1.835779818880384884e+00 -6.631664830304448977e+00
6.558978808175724984e-01 -7.516172927514142010e-01 1.430477287897223837e+00 -7.516172927514142010e-01 7.891766520855354905e+00 -2.892941980376774413e+00 1.430477287897223837e+00 -2.892941980376774413e+00 -2.276773413383314626e+00
-3.127661974536059653e+00 2.516196559572745906e-01 -1.225421857625026201e+00 2.516196559572745906e-01 -6.749711062210698387e+00 -3.147521240339209658e+00 -1.225421857625026201e+00 -3.147521240339209658e+00 3.037864304771642043e+00
-3.186349454888947053e-01 2.996150268174451625e+00 -9.919496808819568134e-02 2.996150268174451625e+00 -4.999565061218345541e+00 1.190385840249442273e+00 -9.919496808819568134e-02 1.190385840249442273e+00 -4.716170676619682922e+00
1.394878994119105320e+00 2.567659546796760672e+00 1.952431328141090772e+00 2.567659546796760672e+00 -4.767038647274512542e+00 3.957201609790655716e+00 1.952431328141090772e+00 3.957201609790655716e+00 3.370879755645740605e+00
-8.510285986913865841e+00 -3.681942442138771199e+00 -5.993752997409004246e-01 -3.681942442138771199e+00 2.833058196840231524e+00 2.961768104089632647e+00 -5.993752997409004246e-01 2.961768104089632647e+00 -7.141044681597191079e+00
1.261891331106140823e+00 8.729477868074800639e+00 5.412921587076954921e+00 8.729477868074800639e+00 -8.925600561692908386e+00 5.118647188348196542e-01 5.412921587076954921e+00 5.118647188348196542e-01 7.450870251173060677e-01
-6.924663767869366993e+00 -2.154841779025638893e+00 -9.706147430705839296e-01 -2.154841779025638893e+00 3.388615421416032003e+00 1.388264101462605371e+00 -9.706147430705839296e-01 1.388264101462605371e+00 -3.354494682123814187e+00
-1.098454139781892103e+00 4.623767891760416582e+00 -1.790023909434353744e+00 4.623767891760416582e+00 4.625142405043941807e+00 4.549098642558135452e+00 -1.790023909434353744e+00 4.549098642558135452e+00 5.827500269658410836e+00
-2.067371997338495415e+00 -3.818016441541558947e+00 -9.024581789626954231e-01 -3.818016441541558947e+00 -8.935005941647577998e+00 -9.598334165424919906e-01 -9.024581789626954231e-01 -9.598334165424919906e-01 3.618932415479575226e+00
1.045222464615011049e+01 2.208286946947429108e+00 5.724354913916351428e+00 2.208286946947429108e+00 9.858356088341448498e+00 -2.320476360036126895e+00 5.724354913916351428e+00 -2.320476360036126895e+00 4.392032716531552694e+00
3.385072774328892059e-02 -2.554849185144643098e+00 -4.174245581051528653e+00 -2.554849185144643098e+00 4.846215786204469467e+00 -1.889296821750892308e+00 -4.174245581051528653e+00 -1.889296821750892308e+00 3.599750197089506276e+00
-3.722924482912800759e+00 -3.388882507922110765e+00 -5.001681995509489331e-01 -3.388882507922110765e+00 1.213015983260864461e+00 2.075310582942059057e+00 -5.001681995509489331e-01 2.075310582942059057e+00 1.810126823491704506e+00
3.315916331562530850e+00 -3.471584574319178440e+00 -7.418144280467205975e-01 -3.471584574319178440e+00 -6.934014184040971251e+00 1.053988567437225576e+00 -7.418144280467205975e-01 1.053988567437225576e+00 -7.321069503363879072e+00
-9.237368555617017307e+00 -3.609290847565681748e+00 8.599076290834258840e-01 -3.609290847565681748e+00 -3.746221030296874588e+00 6.224165116893547178e-02 8.599076290834258840e-01 6.224165116893547178e-02 -1.555048138504758315e+00
-2.362939833123753441e+00 -1.023534373229075367e+00 -5.781849616118887702e+00 -1.023534373229075367e+00 4.403697866087346036e+00 1.076076032137014415e+00 -5.781849616118887702e+00 1.076076032137014415e+00 2.192594048095945158e+00
3.187669696677065456e+00 2.928759291998434211e+00 -2.525366850609300329e+00 2.928759291998434211e+00 -1.554526015699357888e+00 1.902943661733121239e+00 -2.525366850609300329e+00 1.902943661733121239e+00 -7.987933390445005610e-01
9.159822170781071193e+00 -1.562620437237525639e+00 6.593884854016307528e+00 -1.562620437237525639e+00 7.076256836823850982e-01 -2.596834065659729518e+00 6.593884854016307528e+00 -2.596834065659729518e+00 7.696629865209838606e-01
-5.659678557900297946e+00 3.533475523864294310e+00 -1.308863256483692616e+00 3.533475523864294310e+00 -9.827007718906401124e+00 6.031430780699631455e+00 -1.308863256483692616e+00 6.031430780699631455e+00 -9.780200648408651887e+00
-7.486171299874524010e+00 -1.688936430600629812e+00 4.155204630236802310e-01 -1.688936430600629812e+00 3.947389712507532344e+00 -7.847260747816312332e+00 4.155204630236802310e-01 -7.847260747816312332e+00 -2.979268668102561080e+00
-2.202021306949883961e+00 1.767036333878457821e+00 -3.228124147444230818e+00 1.767036333878457821e+00 -6.119213103570392498e+00 1.489754649560633748e+00 -3.228124147444230818e+00 1.489754649560633748e+00 5.408081413044484309e-01
-4.991428538916388824e+00 -3.291792295804058747e-03 -2.690479821760896506e+00 -3.291792295804058747e-03 1.134991656698230766e+00 -4.942495729243001179e+00 -2.690479821760896506e+00 -4.942495729243001179e+00 1.032478759705581517e+01
-1.034858844393310484e+01 4.155918562926203208e+00 -3.744900315013004466e-01 4.155918562926203208e+00 -5.534782919196008955e+00 -6.385759411383455486e+00 -3.744900315013004466e-01 -6.385759411383455486e+00 -4.789490138416119258e+00
5.121613057247913048e+00 1.632497713678054740e+00 -2.119695622557514536e+00 1.632497713678054740e+00 6.978156702729742200e+00 -2.618493230000737082e+00 -2.119695622557514536e+00 -2.618493230000737082e+00 6.068703343125756433e+00
-7.701437521765115868e+00 -4.802230133792439126e+00 1.564149662841267663e-01 -4.802230133792439126e+00 -8.616683563879012908e+00 -1.427720619849494055e+00 1.564149662841267663e-01 -1.427720619849494055e+00 -3.748311631235698105e+00
-1.321906614699204141e+01 6.912071475478056559e-01 4.567030169622139368e+00 6.912071475478056559e-01 -1.394010804770041112e+01 -1.418508829324714782e+00 4.567030169622139368e+00 -1.418508829324714782e+00 -1.214896895142338806e+01
-1.003453352715519742e+01 2.570746914688163187e+00 -3.563164746828987983e+00 2.570746914688163187e+00 -2.847732638466143662e+00 -2.500015477666012842e+00 -3.563164746828987983e+00 -2.500015477666012842e+00 -3.176408081990349075e+00
1.122894529107304429e+01 2.021785277780573598e+00 -3.388561043609464862e-01 2.021785277780573598e+00 1.908168141794616446e+01 7.108945682149153455e+00 -3.388561043609464862e-01 7.108945682149153455e+00 7.623225826772243252e+00
-1.459634940993951879e+01 -5.985119221187530592e+00 -2.219278860593223435e-01 -5.985119221187530592e+00 -7.013925845192553687e+00 -2.988664549736397280e+00 -2.219278860593223435e-01 -2.988664549736397280e+00 -6.392420711813881162e+00
-9.079097847683279099e+00 3.047348743182834330e+00 -2.730085817339699794e+00 3.047348743182834330e+00 4.933489267332260564e-01 1.127552648531208845e+00 -2.730085817339699794e+00 1.127552648531208845e+00 2.758342210801283390e-01
2.758996504338710132e+00 2.088324134629316209e+00 -1.614229722006853551e+00 2.088324134629316209e+00 6.119340649223147466e+00 -5.056228138431772656e+00 -1.614229722006853551e+00 -5.056228138431772656e+00 8.456353828981644227e+00
-5.944264470481094520e+00 9.652261550384364508e-01 -1.135720862922117158e+00 9.652261550384364508e-01 7.694493551234851125e-01 5.495184201802942425e+00 -1.135720862922117158e+00 5.495184201802942425e+00 -1.330455013506535722e-01
8.782662793241900800e+00 -2.654712447460967795e+00 2.593869843652586660e+00 -2.654712447460967795e+00 2.324408473775279038e+00 1.762388734113804922e+00 2.593869843652586660e+00 1.762388734113804922e+00 -3.488659486992161440e+00
-5.009823004908833255e+00 -4.586712525035244958e+00 -1.047196672078384516e+00 -4.586712525035244958e+00 -7.731212264483684038e+00 1.417586074798637075e+00 -1.047196672078384516e+00 1.417586074798637075e+00 -9.039026912330641039e+00
-1.270994333530311060e+01 2.941447474898644110e+00 4.113317490217077932e+00 2.941447474898644110e+00 -5.232858120295903248e+00 3.780185005616812699e+00 4.113317490217077932e+00 3.780185005616812699e+00 -2.880467995376791102e+00
5.771373088557748332e+00 1.118114426212954271e+01 4.033206504525604252e+00 1.118114426212954271e+01 -8.828055197105594942e+00 3.447224951498568224e+00 4.033206504525604252e+00 3.447224951498568224e+00 -1.261044286061232311e+00
-4.271766088561494534e+00 -4.109000635530910550e+00 -2.884291869949356268e+00 -4.109000635530910550e+00 2.397878342052289113e+00 2.516205001075948466e+00 -2.884291869949356268e+00 2.516205001075948466e+00 -5.210006065684269494e-01
-6.798957601535695616e+00 1.687198988189376081e+00 -2.231461487818764855e+00 1.687198988189376081e+00 -5.738939130242454389e+00 2.318580143402762861e+00 -2.231461487818764855e+00 2.318580143402762861e+00 -1.868994988218136255e+00
-8.090005310864823329e+00 -2.938953310326762214e+00 2.028090258211939112e+00 -2.938953310326762214e+00 -9.933746117589528524e+00 3.180575090249936898e-01 2.028090258211939112e+00 3.180575090249936898e-01 -2.201574449904926567e+00
-5.429023711991082912e+00 -4.026914361877900195e-01 7.478568421813881761e-02 -4.026914361877900195e-01 -4.189621886022409036e+00 -1.102542271132075147e+00 7.478568421813881761e-02 -1.102542271132075147e+00 -3.730142405916170301e+00
-8.799561876982904707e+00 -1.443430174158033541e+00 4.358839194641988435e+00 -1.443430174158033541e+00 -2.536355577333092803e+00 -3.993804080460521266e+00 4.358839194641988435e+00 -3.993804080460521266e+00 3.598381697561224168e+00
-2.077911926887995531e+00 6.236370873148840310e+00 -1.921724523877549329e+00 6.236370873148840310e+00 7.536402240706896016e+00 2.149958751485848030e+00 -1.921724523877549329e+00 2.149958751485848030e+00 -7.959054723868443482e+00
5.957579388924089336e+00 -1.634090940191383678e+00 -4.016317625387060275e+00 -1.634090940191383678e+00 -1.207423182536291328e+00 1.239964700240967943e+00 -4.016317625387060275e+00 1.239964700240967943e+00 3.687300474903408287e-01
-5.308738652734048102e+00 -2.034605502744529115e+00 -2.959661256635302884e+00 -2.034605502744529115e+00 5.244997856414150839e+00 -4.147902794320263098e+00 -2.959661256635302884e+00 -4.147902794320263098e+00 4.290612746777079600e+00
-8.313174613535385671e-01 3.130163675883495866e+00 2.630131546255104480e-01 3.130163675883495866e+00 -6.041858257827665390e+00 -1.406176496372575635e-01 2.630131546255104480e-01 -1.406176496372575635e-01 -1.072815188558690380e+01
1.131345699041975461e+00 -8.691834835511744739e-01 -2.078543029241510798e+00 -8.691834835511744739e-01 -4.834534046705592836e+00 -4.196766445843613802e+00 -2.078543029241510798e+00 -4.196766445843613802e+00 -5.962441385055337051e+00
5.744459457757059795e+00 -1.640188139710259119e+00 2.907401605924991639e+00 -1.640188139710259119e+00 5.570271760731870359e+00 -9.415996016599551544e-01 2.907401605924991639e+00 -9.415996016599551544e-01 -3.793233984216346943e+00
5.463271596393795448e+00 6.428670589786094069e+00 -3.621419674698935776e+00 6.428670589786094069e+00 -4.461862459984063278e+00 -1.952434427695321606e+00 -3.621419674698935776e+00 -1.952434427695321606e+00 -3.627917914681475509e+00
2.475442970593692227e+00 -3.196950815285346081e+00 1.738178585826127609e+00 -3.196950815285346081e+00 -5.404886831551138471e+00 -1.038659051848233039e+00 1.738178585826127609e+00 -1.038659051848233039e+00 -2.545225682220474628e+00
-1.938396811415844523e+00 4.860546883424229136e+00 2.114547511205956631e+00 4.860546883424229136e+00 3.414485094951168254e+00 -3.141055658022063657e+00 2.114547511205956631e+00 -3.141055658022063657e+00 -6.684857227328951934e-01
-9.752817954960761870e-01 2.623682437838093851e+00 4.636603885984261098e+00 2.623682437838093851e+00 9.761018168062935985e+00 -1.275545193712707359e+00 4.636603885984261098e+00 -1.275545193712707359e+00 1.530318742624839023e+00
-4.866528225524441531e+00 1.857065243457479253e+00 -2.834546927632166202e+00 1.857065243457479253e+00 -7.672078830139625438e+00 -1.430442627186295779e+00 -2.834546927632166202e+00 -1.430442627186295779e+00 -2.230854853525661152e+00
-7.847561421299739770e+00 2.488245078652680853e+00 3.012463721241982029e+00 2.488245078652680853e+00 -6.011223158806362932e+00 -8.435165355090054051e-01 3.012463721241982029e+00 -8.435165355090054051e-01 -6.042945596327907509e+00
-5.030445687087125251e+00 -3.651685095712624562e-01 -2.952969101580150135e-01 -3.651685095712624562e-01 6.976844252434994953e-01 -4.387207467803730943e+00 -2.952969101580150135e-01 -4.387207467803730943e+00 5.087553340780786471e+00
3.089161094372126826e+00 2.966686185221517391e+00 2.217471541377343258e-01 2.966686185221517391e+00 -1.171683039817603911e+00 -7.674663991997652257e-01 2.217471541377343258e-01 -7.674663991997652257e-01 -7.481503014513538607e-01
3.092592602419514503e+00 -4.728968025454249435e+00 -2.903113640376396298e-01 -4.728968025454249435e+00 8.727347678647499052e+00 5.964915231450403255e+00 -2.903113640376396298e-01 5.964915231450403255e+00 -1.768570047715979587e+00
1.960947334356627714e+00 4.517036422686703467e+00 3.139740276421364662e+00 4.517036422686703467e+00 4.088387483908025644e+00 2.401381125920152293e+00 3.139740276421364662e+00 2.401381125920152293e+00 7.971155371241398058e+00
-7.553822416307750531e-01 2.642750477310679358e+00 -4.037092330003173579e+00 2.642750477310679358e+00 7.954245021862316189e-02 3.288208485854967833e+00 -4.037092330003173579e+00 3.288208485854967833e+00 -2.153447605095307971e+00
-2.777433910935210637e+00 3.092778395976059080e-01 -2.833837144987883860e+00 3.092778395976059080e-01 -3.637763254118495659e+00 5.553261945135444577e+00 -2.833837144987883860e+00 5.553261945135444577e+00 1.383889766472587546e+00
-6.013704924750025160e-01 5.884809622724379352e+00 -2.174324674692967641e+00 5.884809622724379352e+00 -3.736731949987662560e+00 2.380321000515677632e+00 -2.174324674692967641e+00 2.380321000515677632e+00 -3.232659771623740963e-01
-2.100671841348935143e+00 2.347064989768417043e+00 -2.387997694519080394e+00 2.347064989768417043e+00 -1.011816615440629619e+00 1.719762233556366038e+00 -2.387997694519080394e+00 1.719762233556366038e+00 -5.565036664464116711e+00
1.031604008964438046e+00 1.469044667099334234e+00 -5.447473829908533460e+00 1.469044667099334234e+00 5.515457765002961033e+00 -1.113996825865568807e+00 -5.447473829908533460e+00 -1.113996825865568807e+00 3.529595974936636349e+00
-8.428815768373882023e+00 1.874529114255570894e+00 -3.603293250990241781e+00 1.874529114255570894e+00 -6.686685121664684317e+00 1.662285614495271124e+00 -3.603293250990241781e+00 1.662285614495271124e+00 -4.591321437082491741e+00
-6.001999849959271494e+00 1.461185689028757784e+00 -2.118422522899371607e+00 1.461185689028757784e+00 9.732525651255155452e+00 -1.587640890729873355e+00 -2.118422522899371607e+00 -1.587640890729873355e+00 1.979412921669882586e+00
-1.694315275923512720e+00 -1.638775447920801431e+00 -1.339751703672819483e+00 -1.638775447920801431e+00 2.528793322806597299e+00 -1.137615057630494642e+00 -1.339751703672819483e+00 -1.137615057630494642e+00 6.970563168646299879e+00
4.094272995409136584e+00 -4.009538719145125718e+00 2.598803683554715693e+00 -4.009538719145125718e+00 4.909613743936811048e+00 -4.889471588040623651e+00 2.598803683554715693e+00 -4.889471588040623651e+00 8.729688777693466406e+00
-6.266057688148150007e+00 8.720213692867899713e-01 2.902429776312975385e+00 8.720213692867899713e-01 -3.780252050585110268e+00 1.421843714607665454e+00 2.902429776312975385e+00 1.421843714607665454e+00 -1.760666325207654870e+00
1.767637649335603189e+00 -1.459454314797041352e+00 4.244166104226036573e+00 -1.459454314797041352e+00 -1.716567891968005188e+00 3.119476141250798307e+00 4.244166104226036573e+00 3.119476141250798307e+00 -5.483330920552512033e+00
-4.206770099156021736e+00 2.751353034400763509e+00 5.190659147174103705e-01 2.751353034400763509e+00 -1.555066451054406551e+00 -8.055976905634082641e+00 5.190659147174103705e-01 -8.055976905634082641e+00 -6.126095579144215542e+00
2.263779286221586862e+00 -3.184584228227911318e+00 -6.786093789374059604e+00 -3.184584228227911318e+00 7.326538466619910039e+00 -1.698136887211492363e+00 -6.786093789374059604e+00 -1.698136887211492363e+00 8.727677707795544748e+00
-1.493022784351805754e+01 -1.056333634190149251e+00 9.262859664441639440e-01 -1.056333634190149251e+00 3.222538531823642138e+00 -3.285784243952113992e-01 9.262859664441639440e-01 -3.285784243952113992e-01 -1.253515789412362524e+00
-5.850383316416642110e+00 -6.200400109291512862e-01 3.219235636557935987e+00 -6.200400109291512862e-01 -4.302051050673940225e+00 -8.139171352491080258e-01 3.219235636557935987e+00 -8.139171352491080258e-01 1.328401927973732466e+00
-6.116183548356389998e+00 1.291819642953601743e+00 5.619350120283038486e+00 1.291819642953601743e+00 -5.118034645364447854e+00 1.686755347193797050e+00 5.619350120283038486e+00 1.686755347193797050e+00 -3.130208786750776628e+00
7.027421564520691888e+00 3.395414303919069177e+00 2.461003659568768154e-01 3.395414303919069177e+00 4.558425835181679098e+00 7.664925663094612762e-01 2.461003659568768154e-01 7.664925663094612762e-01 -9.445149589318146965e+00
-1.784556192702453359e+00 -8.798611176059655037e+00 1.820047180868980652e+00 -8.798611176059655037e+00 6.108051628280027678e+00 4.964065914811393032e-01 1.820047180868980652e+00 4.964065914811393032e-01 9.728463384951417936e+00
-8.424889368720094751e+00 5.736207663332796969e+00 1.922652598020610615e+00 5.736207663332796969e+00 -5.759859512222899047e-01 8.574504836056257018e-01 1.922652598020610615e+00 8.574504836056257018e-01 -1.050800148529466682e+01
1.423488384260122863e-01 -3.216978489855787160e+00 -2.901051129877464163e+00 -3.216978489855787160e+00 -1.114421563925454883e+01 -5.427337142021374738e+00 -2.901051129877464163e+00 -5.427337142021374738e+00 -6.300501598605447562e+00
1.037294651494623382e-01 -6.147466661087609197e+00 1.597862512736551110e+00 -6.147466661087609197e+00 2.048115493708408508e+00 1.489074685248071184e+00 1.597862512736551110e+00 1.489074685248071184e+00 -1.737022539058871023e-02
-3.978610978495826345e+00 1.513051020696754900e+00 -6.141570217328149450e-01 1.513051020696754900e+00 -8.592270071382543506e+00 -4.446475021448593523e+00 -6.141570217328149450e-01 -4.446475021448593523e+00 -1.263013966571552071e+00
-6.679891682895418015e+00 -6.054785325553206476e+00 -2.504107572977272711e-01 -6.054785325553206476e+00 -3.468287706677051219e+00 -3.530017761288853695e+00 -2.504107572977272711e-01 -3.530017761288853695e+00 2.016223544861187378e+00
6.068241482132223474e+00 7.609058219846869253e-01 1.769292085240458778e+00 7.609058219846869253e-01 -3.487901580252946943e+00 -4.236851113117501733e+00 1.769292085240458778e+00 -4.236851113117501733e+00 -2.452197688713890211e-01
6.860346369122512833e+00 4.123868784780817087e+00 -1.951479224335199714e+00 4.123868784780817087e+00 -6.245041579114353425e+00 1.931759501640312626e+00 -1.951479224335199714e+00 1.931759501640312626e+00 2.421380375996199596e+00
-9.512422951447090824e+00 -2.193927671345203834e+00 -2.878030641622518981e+00 -2.193927671345203834e+00 -1.148715488181666800e+01 3.727022983028790981e-01 -2.878030641622518981e+00 3.727022983028790981e-01 -9.725683072425756137e+00
-6.205082895906573803e+00 5.555920391775024392e+00 1.872143689073707984e+00 5.555920391775024392e+00 -1.347861908244288998e+01 1.791062443934237747e+00 1.872143689073707984e+00 1.791062443934237747e+00 -5.735539944173812188e+00
-1.440732813962220504e+01 -1.384526789160676508e+00 -4.102146248492116731e-01 -1.384526789160676508e+00 -1.484537576085506849e+01 2.434787980202549829e+00 -4.102146248492116731e-01 2.434787980202549829e+00 -4.418285944767962548e+00
-8.953153655779626519e+00 -3.861266172885288395e+00 -3.413563538489633675e+00 -3.861266172885288395e+00 7.960353239196114039e-01 1.330214091905282059e+00 -3.413563538489633675e+00 1.330214091905282059e+00 -5.380307748959848091e+00
-1.159854948444895006e+00 -3.747442783289236523e+00 1.473579237255476349e+00 -3.747442783289236523e+00 -5.204388682791218912e+00 9.957862930983493177e-01 1.473579237255476349e+00 9.957862930983493177e-01 -3.848188029995283643e-01
-5.775189970389184246e+00 3.102804626120911902e+00 -2.173821720341213293e-01 3.102804626120911902e+00 -2.019213508204141139e+00 -3.772266860458726168e+00 -2.173821720341213293e-01 -3.772266860458726168e+00 -3.354875595183236747e+00
4.271061095108670713e+00 -2.506112180798057310e+00 2.909852941278949334e+00 -2.506112180798057310e+00 -3.267915704953443967e+00 1.240975044477303335e+00 2.909852941278949334e+00 1.240975044477303335e+00 2.629539959402576343e+00
-2.079571293101566187e+00 -3.197837317669768087e+00 -2.449293235743626729e-01 -3.197837317669768087e+00 -4.456316914685090502e+00 -9.828635638341489678e-01 -2.449293235743626729e-01 -9.828635638341489678e-01 -2.881094039199466383e+00
-1.059243266960177898e+01 -1.322799756302679430e+00 2.389566846548716317e+00 -1.322799756302679430e+00 -1.315394407183529957e+01 1.402277365970036604e-01 2.389566846548716317e+00 1.402277365970036604e-01 -6.866191742648968699e+00
