2.634259999999999824e+00 2.431099999999999817e+00 1.206760000000000055e+01 8.664179999999999993e+00 5.863830000000000098e+00 1.151500000000000057e+01 6.699080000000000368e+00 2.281849999999999934e+00 1.169749999999999979e+01 4.435889999999999667e+00 6.425670000000000215e+00 1.182809999999999917e+01 3.423160000000000203e+00 2.545539999999999914e+00 1.792360000000000042e+01 4.769389999999999574e+00 4.586619999999999919e+00 1.529669999999999952e+01 6.803219999999999601e+00 7.110360000000000014e+00 1.783439999999999870e+01 8.440080000000000027e+00 4.374900000000000233e+00 1.517239999999999966e+01 1.269970000000000043e+00 9.417100000000000470e-01 1.053679999999999950e+01 6.637380000000000280e+00 4.588530000000000442e+00 1.055119999999999969e+01 5.456229999999999691e+00 6.204300000000000370e-01 1.033460000000000001e+01 2.790690000000000115e+00 4.695870000000000211e+00 1.060970000000000013e+01 4.597419999999999618e+00 2.474730000000000096e+00 1.381109999999999971e+01 5.566089999999999982e+00 6.755279999999999951e+00 1.410800000000000054e+01 8.381009999999999849e+00 2.202609999999999957e+00 1.364959999999999951e+01 9.291769999999999641e+00 6.357779999999999987e+00 1.391639999999999944e+01 1.953570000000000029e+00 6.463900000000000201e-01 1.877240000000000109e+01 5.588989999999999903e+00 1.322859999999999925e+00 1.708500000000000085e+01 6.752530000000000143e+00 4.654609999999999914e+00 1.729690000000000083e+01 2.618549999999999933e+00 4.910400000000000098e+00 1.689470000000000027e+01
2.795960000000000001e+00 2.672849999999999948e+00 1.228389999999999915e+01 9.202790000000000248e+00 6.756099999999999994e+00 1.165380000000000038e+01 7.064729999999999954e+00 2.733130000000000059e+00 1.230129999999999946e+01 5.199119999999999742e+00 6.520439999999999792e+00 1.180269999999999975e+01 3.297959999999999781e+00 2.081840000000000135e+00 1.813680000000000092e+01 4.663960000000000328e+00 4.789850000000000385e+00 1.527710000000000079e+01 6.925959999999999894e+00 7.479250000000000398e+00 1.649640000000000128e+01 9.400209999999999511e+00 4.483839999999999826e+00 1.522080000000000055e+01 2.691170000000000062e+00 8.400199999999999889e-01 1.049189999999999934e+01 7.158920000000000172e+00 4.869489999999999874e+00 1.104589999999999961e+01 6.685679999999999623e+00 8.788500000000000201e-01 1.021240000000000059e+01 3.031439999999999912e+00 5.103570000000000384e+00 1.106380000000000052e+01 4.842139999999999667e+00 2.689060000000000006e+00 1.378739999999999988e+01 4.706769999999999676e+00 7.036999999999999922e+00 1.418479999999999919e+01 9.201340000000000074e+00 2.238599999999999923e+00 1.383300000000000018e+01 9.525130000000000763e+00 6.866130000000000067e+00 1.418859999999999921e+01 1.695990000000000109e+00 4.422900000000000165e-01 1.713279999999999959e+01 5.429800000000000182e+00 6.703400000000000469e-01 1.826709999999999923e+01 7.012089999999999712e+00 4.689370000000000260e+00 1.642909999999999826e+01 2.758570000000000189e+00 4.669669999999999987e+00 1.716580000000000084e+01
2.099680000000000213e+00 9.506599999999999495e-01 1.200360000000000049e+01 8.054000000000000048e-02 4.502539999999999765e+00 1.192590000000000039e+01 6.310190000000000410e+00 1.044569999999999999e+00 1.220229999999999926e+01 4.451299999999999812e+00 4.339599999999999902e+00 1.193590000000000018e+01 -2.272000000000000061e-02 1.538599999999999968e-01 1.543909999999999982e+01 -1.865599999999999925e+00 3.463839999999999808e+00 1.602499999999999858e+01 2.831799999999999873e-01 6.878300000000000303e+00 1.535110000000000063e+01 2.113710000000000200e+00 3.198539999999999939e+00 1.632329999999999970e+01 4.388560000000000016e+00 6.782740000000000435e+00 1.088850000000000051e+01 6.480229999999999713e+00 3.266160000000000174e+00 1.061640000000000050e+01 2.336600000000000066e-01 6.860430000000000028e+00 1.077619999999999933e+01 2.173919999999999852e+00 3.294999999999999929e+00 1.073939999999999984e+01 1.305499999999999994e-01 2.500950000000000006e+00 1.412669999999999959e+01 -1.982779999999999987e+00 5.943539999999999601e+00 1.400389999999999979e+01 4.533479999999999954e+00 2.230210000000000026e+00 1.391050000000000075e+01 2.385310000000000041e+00 5.810179999999999900e+00 1.422070000000000078e+01 7.964799999999999658e-01 1.644500000000000128e-01 1.781299999999999883e+01 -6.649100000000000010e-01 1.962760000000000060e+00 1.816969999999999885e+01 4.053679999999999950e+00 8.027699999999999836e-01 1.790419999999999945e+01 -2.990999999999999770e-01 5.272450000000000081e+00 1.751150000000000162e+01
4.816300000000000026e+00 2.601319999999999855e+00 1.146979999999999933e+01 9.388429999999999609e+00 6.595200000000000173e+00 1.201169999999999938e+01 8.986019999999999897e+00 2.698989999999999778e+00 1.148579999999999934e+01 5.202799999999999869e+00 6.456319999999999837e+00 1.152089999999999925e+01 2.948589999999999822e+00 1.838870000000000005e+00 1.806670000000000087e+01 3.045290000000000052e+00 4.486970000000000347e+00 1.516210000000000058e+01 5.480859999999999843e+00 6.348090000000000011e+00 1.810330000000000084e+01 7.381070000000000242e+00 4.514210000000000278e+00 1.498440000000000083e+01 2.597370000000000179e+00 1.178989999999999982e+00 1.051370000000000005e+01 9.276030000000000442e+00 4.952280000000000015e+00 1.022339999999999982e+01 6.948129999999999917e+00 1.258380000000000054e+00 1.040559999999999974e+01 5.002860000000000085e+00 4.618339999999999890e+00 9.855629999999999669e+00 5.019420000000000215e+00 2.756780000000000008e+00 1.441310000000000002e+01 3.077710000000000168e+00 6.389479999999999826e+00 1.336469999999999914e+01 9.412750000000000838e+00 2.923869999999999969e+00 1.422129999999999939e+01 7.012660000000000338e+00 6.715629999999999988e+00 1.356460000000000043e+01 2.772079999999999878e+00 2.620100000000000207e-01 9.611000000000000099e-02 1.849820000000000020e+00 4.460600000000000120e-01 1.627060000000000173e+01 7.603609999999999758e+00 4.992130000000000400e+00 1.755669999999999931e+01 3.319339999999999957e+00 4.533339999999999925e+00 1.785249999999999915e+01
1.811450000000000005e+00 1.220509999999999984e+00 1.173489999999999966e+01 4.775000000000000078e-02 4.649219999999999686e+00 1.180199999999999960e+01 5.970589999999999620e+00 1.247659999999999991e+00 1.191949999999999932e+01 4.318649999999999878e+00 5.004730000000000345e+00 1.197489999999999988e+01 -4.074790000000000134e+00 7.124839999999999840e+00 1.559520000000000017e+01 -1.980609999999999982e+00 3.568470000000000031e+00 1.589109999999999978e+01 4.204329999999999679e+00 5.215999999999999803e-02 1.582649999999999935e+01 1.903739999999999988e+00 3.602339999999999876e+00 1.567179999999999929e+01 8.042830000000000368e+00 8.744000000000000383e-02 1.043790000000000084e+01 6.129780000000000229e+00 3.539449999999999985e+00 1.043510000000000026e+01 -9.624000000000000610e-02 7.107269999999999754e+00 1.059939999999999927e+01 2.173639999999999795e+00 3.605579999999999785e+00 1.063569999999999993e+01 -1.402299999999999935e-01 2.254879999999999995e+00 1.423920000000000030e+01 -1.802300000000000013e+00 6.087729999999999642e+00 1.424579999999999913e+01 4.039410000000000167e+00 2.650560000000000027e+00 1.452469999999999928e+01 1.969759999999999955e+00 5.971149999999999736e+00 1.428669999999999973e+01 4.495680000000000121e+00 6.236710000000000420e+00 1.792299999999999827e+01 -7.173699999999999521e-01 2.591299999999999937e+00 1.817620000000000147e+01 4.779589999999999783e+00 2.307500000000000107e-01 1.826409999999999911e+01 6.989300000000000512e-01 4.417200000000000237e+00 1.810750000000000171e+01
4.792950000000000266e+00 2.488989999999999814e+00 1.146000000000000085e+01 9.738730000000000331e+00 6.170950000000000379e+00 1.170159999999999911e+01 8.762990000000000279e+00 2.710859999999999825e+00 1.093660000000000032e+01 5.168599999999999639e+00 6.330809999999999604e+00 1.215970000000000084e+01 3.342299999999999827e+00 2.575260000000000105e+00 1.822080000000000055e+01 2.924830000000000041e+00 4.165530000000000399e+00 1.473310000000000031e+01 5.663190000000000168e+00 7.123709999999999987e+00 1.820749999999999957e+01 7.180519999999999570e+00 4.022059999999999746e+00 1.527110000000000056e+01 2.660449999999999982e+00 1.010580000000000034e+00 1.074479999999999968e+01 8.090099999999999625e+00 4.878169999999999895e+00 1.005230000000000068e+01 6.857459999999999667e+00 9.484399999999999498e-01 1.011749999999999972e+01 3.861800000000000122e+00 4.787560000000000038e+00 1.057039999999999935e+01 4.981329999999999814e+00 2.556309999999999860e+00 1.397669999999999924e+01 2.911189999999999944e+00 6.782020000000000159e+00 1.390670000000000073e+01 9.715599999999999792e-01 2.581749999999999989e+00 1.365840000000000032e+01 7.152210000000000178e+00 6.363269999999999982e+00 1.373210000000000086e+01 2.314709999999999823e+00 1.141049999999999898e+00 8.591999999999999638e-02 4.883720000000000283e+00 9.053600000000000536e-01 1.730239999999999867e+01 5.306309999999999860e+00 4.705840000000000245e+00 1.732799999999999940e+01 9.578329999999999345e+00 4.079559999999999853e+00 1.702890000000000015e+01
4.722089999999999677e+00 2.646529999999999827e+00 1.139080000000000048e+01 9.292859999999999232e+00 6.909779999999999589e+00 1.219880000000000031e+01 9.148709999999999454e+00 2.946019999999999861e+00 1.158060000000000045e+01 5.291150000000000020e+00 6.633619999999999628e+00 1.178159999999999918e+01 2.917850000000000055e+00 2.000280000000000058e+00 1.782730000000000103e+01 3.000360000000000138e+00 4.513099999999999667e+00 1.486560000000000059e+01 6.493599999999999817e+00 6.475179999999999936e+00 1.801229999999999976e+01 7.111180000000000057e+00 4.075120000000000076e+00 1.493820000000000014e+01 2.533310000000000173e+00 1.438050000000000050e+00 1.068820000000000014e+01 9.574089999999999989e+00 5.241150000000000198e+00 1.034430000000000049e+01 6.863579999999999792e+00 1.423550000000000093e+00 1.080719999999999992e+01 4.786150000000000126e+00 4.903349999999999653e+00 9.926819999999999311e+00 4.933110000000000106e+00 2.927369999999999806e+00 1.412470000000000070e+01 3.126660000000000217e+00 6.831220000000000070e+00 1.365049999999999919e+01 9.245290000000000674e+00 2.827669999999999906e+00 1.414119999999999955e+01 7.196550000000000225e+00 6.604860000000000397e+00 1.370770000000000088e+01 4.372309999999999697e+00 7.550999999999999934e-01 1.948499999999999943e+01 1.725030000000000063e+00 4.288000000000000145e-02 1.678109999999999857e+01 6.719269999999999854e+00 3.903300000000000214e+00 1.757969999999999899e+01 2.793759999999999799e+00 4.483929999999999971e+00 1.740630000000000166e+01
3.929769999999999985e+00 2.226869999999999905e+00 1.123259999999999970e+01 9.230719999999999814e+00 5.878610000000000113e+00 1.158629999999999960e+01 8.098240000000000549e+00 1.989810000000000079e+00 1.144609999999999950e+01 5.095209999999999795e+00 5.379859999999999864e+00 1.212330000000000041e+01 4.170049999999999812e+00 3.313709999999999933e+00 1.814059999999999917e+01 2.835249999999999826e+00 3.834340000000000082e+00 1.484440000000000026e+01 6.605509999999999771e+00 7.316250000000000142e+00 1.849470000000000169e+01 7.675089999999999968e+00 4.736530000000000129e+00 1.522499999999999964e+01 2.021090000000000053e+00 6.886400000000000299e-01 1.041220000000000034e+01 7.250619999999999621e+00 4.127989999999999604e+00 1.035529999999999973e+01 6.076550000000000118e+00 6.262499999999999734e-01 1.023019999999999996e+01 3.219860000000000166e+00 4.489670000000000272e+00 1.028309999999999924e+01 4.895699999999999719e+00 2.833899999999999864e+00 1.377500000000000036e+01 2.849149999999999849e+00 6.396200000000000330e+00 1.367370000000000019e+01 8.661780000000000257e+00 2.457739999999999814e+00 1.408600000000000030e+01 7.167919999999999625e+00 6.627900000000000347e+00 1.349540000000000006e+01 3.465539999999999843e+00 1.702399999999999913e+00 7.575999999999999401e-02 4.827869999999999884e+00 1.256050000000000111e+00 1.665579999999999927e+01 6.204360000000000319e+00 4.986460000000000115e+00 1.764450000000000074e+01 1.999549999999999939e+00 4.580110000000000348e+00 1.723140000000000072e+01
4.206039999999999779e+00 1.494560000000000111e+00 1.170079999999999920e+01 1.854940000000000033e+00 5.047530000000000072e+00 1.098199999999999932e+01 -8.443000000000000504e-02 1.548650000000000082e+00 1.149840000000000018e+01 -2.442649999999999988e+00 5.160929999999999573e+00 1.164259999999999984e+01 3.859799999999999898e+00 3.628330000000000055e+00 1.844160000000000110e+01 -1.852179999999999938e+00 3.760990000000000055e+00 1.530020000000000024e+01 1.016119999999999912e+00 1.239470000000000072e+00 1.819369999999999976e+01 1.632100000000000106e+00 3.539239999999999942e+00 1.437010000000000076e+01 2.011410000000000142e+00 3.691499999999999782e-01 1.035979999999999990e+01 -4.165499999999999758e-01 3.932350000000000012e+00 1.035159999999999947e+01 6.117200000000000415e+00 4.443699999999999872e-01 1.009989999999999988e+01 3.932859999999999800e+00 3.707450000000000134e+00 1.027040000000000042e+01 -6.708300000000000374e-01 1.689179999999999904e+00 1.400549999999999962e+01 -2.802849999999999842e+00 5.827189999999999870e+00 1.410280000000000022e+01 3.731129999999999836e+00 2.045279999999999987e+00 1.418009999999999948e+01 1.784119999999999928e+00 5.951249999999999929e+00 1.361630000000000074e+01 2.436179999999999790e+00 1.814950000000000063e+00 1.437299999999999967e-01 6.161769999999999747e+00 2.869769999999999932e+00 1.767940000000000111e+01 3.916809999999999903e+00 6.156159999999999854e+00 1.752209999999999823e+01 1.354589999999999961e+00 3.304089999999999971e+00 1.698839999999999861e+01
3.798179999999999890e+00 1.568950000000000067e+00 1.117309999999999981e+01 1.548510000000000053e+00 5.290239999999999831e+00 1.113889999999999958e+01 -5.001900000000000235e-01 2.006320000000000103e+00 1.148269999999999946e+01 -2.795570000000000110e+00 5.567610000000000170e+00 1.124750000000000050e+01 4.202280000000000015e+00 3.368290000000000006e+00 1.839630000000000010e+01 5.950269999999999726e+00 3.277130000000000098e+00 1.458689999999999998e+01 1.997270000000000101e+00 8.636200000000000543e-01 1.899990000000000023e+01 1.849939999999999918e+00 3.349920000000000009e+00 1.482070000000000043e+01 1.295590000000000019e+00 8.034200000000000230e-01 1.001190000000000069e+01 -8.013700000000000268e-01 4.214550000000000018e+00 1.001699999999999946e+01 5.765579999999999927e+00 5.124699999999999811e-01 9.899210000000000065e+00 3.676620000000000221e+00 4.169270000000000032e+00 9.950829999999999842e+00 -4.247099999999999764e-01 1.528810000000000002e+00 1.399460000000000015e+01 -2.284139999999999837e+00 5.748479999999999812e+00 1.382549999999999990e+01 3.749410000000000132e+00 1.837159999999999904e+00 1.380959999999999965e+01 1.192720000000000002e+00 5.586820000000000341e+00 1.355850000000000044e+01 3.935270000000000046e+00 2.015559999999999796e+00 4.300800000000000178e-01 6.439750000000000085e+00 2.903399999999999981e+00 1.707359999999999900e+01 4.553020000000000067e+00 6.099999999999999645e+00 1.953079999999999927e+01 1.891440000000000010e+00 3.200579999999999981e+00 1.763029999999999831e+01
1.056449999999999889e+00 3.273579999999999934e+00 1.230470000000000041e+01 -8.541800000000000503e-01 6.386020000000000252e+00 1.200670000000000037e+01 5.057229999999999670e+00 3.321400000000000130e+00 1.213879999999999981e+01 6.947639999999999816e+00 3.388000000000000039e-02 1.227089999999999925e+01 -2.791669999999999874e+00 5.368970000000000020e+00 1.667099999999999937e+01 -1.048130000000000006e+00 2.027950000000000141e+00 1.570759999999999934e+01 1.164009999999999989e+00 5.329410000000000203e+00 1.562720000000000020e+01 2.909640000000000004e+00 1.793430000000000080e+00 1.603800000000000026e+01 -1.158860000000000001e+00 2.412990000000000190e+00 1.075680000000000014e+01 -2.986279999999999824e+00 5.627159999999999940e+00 1.085009999999999941e+01 3.012809999999999988e+00 1.990939999999999932e+00 1.087930000000000064e+01 1.354119999999999990e+00 5.484309999999999796e+00 1.073729999999999940e+01 8.363300000000000178e-01 1.292399999999999993e+00 1.397310000000000052e+01 -1.032299999999999995e+00 4.740549999999999820e+00 1.419389999999999930e+01 5.046549999999999869e+00 1.171359999999999957e+00 1.394759999999999955e+01 3.150749999999999940e+00 4.667239999999999611e+00 1.392259999999999920e+01 -5.443700000000000205e-01 6.642809999999999881e+00 1.746059999999999945e+01 5.206590000000000273e+00 3.108460000000000001e+00 1.730460000000000065e+01 1.000429999999999930e+00 3.188860000000000028e+00 1.707319999999999993e+01 3.191149999999999931e+00 6.696030000000000371e+00 1.732649999999999935e+01
4.660619999999999763e+00 2.512869999999999937e+00 1.156020000000000003e+01 9.288840000000000430e+00 6.343009999999999593e+00 1.160009999999999941e+01 9.020129999999999981e+00 2.696340000000000181e+00 1.154710000000000036e+01 4.926440000000000374e+00 6.477780000000000094e+00 1.198170000000000002e+01 3.586380000000000123e+00 2.749919999999999920e+00 1.817370000000000019e+01 2.709680000000000089e+00 3.840980000000000061e+00 1.479630000000000045e+01 6.252989999999999604e+00 7.010769999999999946e+00 1.842419999999999902e+01 6.992289999999999672e+00 4.050799999999999734e+00 1.522390000000000043e+01 2.529139999999999944e+00 1.101529999999999898e+00 1.055669999999999931e+01 9.206820000000000448e+00 4.462659999999999627e+00 9.810570000000000235e+00 6.815940000000000332e+00 1.329919999999999991e+00 1.051019999999999932e+01 4.757089999999999819e+00 4.737919999999999909e+00 1.023949999999999960e+01 4.963700000000000223e+00 2.673470000000000013e+00 1.416510000000000069e+01 2.736600000000000144e+00 6.377320000000000100e+00 1.356109999999999971e+01 9.089859999999999829e+00 2.652369999999999894e+00 1.410899999999999999e+01 7.213720000000000354e+00 5.822750000000000092e+00 1.329679999999999929e+01 4.715600000000000236e+00 9.671699999999999742e-01 1.972500000000000142e+01 2.377679999999999794e+00 8.938899999999999624e-01 1.677819999999999823e+01 6.664460000000000051e+00 4.505989999999999718e+00 1.769770000000000110e+01 2.773400000000000087e+00 4.924559999999999604e+00 1.715749999999999886e+01
2.076989999999999892e+00 1.462380000000000013e+00 1.212480000000000047e+01 -6.943000000000000560e-02 4.856080000000000396e+00 1.172339999999999982e+01 6.300910000000000011e+00 1.330330000000000013e+00 1.194909999999999961e+01 4.249959999999999738e+00 4.855380000000000251e+00 1.219549999999999912e+01 8.091530000000000555e+00 7.584000000000000463e-02 1.552399999999999913e+01 5.960340000000000416e+00 3.682900000000000063e+00 1.660569999999999879e+01 4.167699999999999960e+00 2.754199999999999982e-01 1.608340000000000103e+01 2.006229999999999958e+00 3.512929999999999886e+00 1.573559999999999981e+01 8.692999999999999339e-02 1.606200000000000128e-01 1.067099999999999937e+01 -2.139699999999999935e+00 3.739669999999999828e+00 1.057169999999999987e+01 4.125989999999999824e+00 2.922399999999999998e-01 1.069510000000000005e+01 2.174430000000000085e+00 3.772920000000000051e+00 1.072160000000000046e+01 2.111999999999999988e-02 2.313699999999999868e+00 1.398049999999999926e+01 -2.271920000000000162e+00 5.644009999999999749e+00 1.389450000000000074e+01 4.195470000000000255e+00 2.204680000000000195e+00 1.408489999999999931e+01 1.904230000000000089e+00 5.802459999999999951e+00 1.413339999999999996e+01 1.566670000000000007e+00 1.062619999999999898e+00 1.805880000000000152e+01 6.723609999999999864e+00 3.511199999999999877e-01 1.760350000000000037e+01 -1.669710000000000027e+00 5.952740000000000364e+00 1.755720000000000169e+01 3.810470000000000024e+00 3.775479999999999947e+00 1.763909999999999911e+01
1.430809999999999915e+00 1.837900000000000089e+00 1.175300000000000011e+01 -8.638000000000000123e-01 5.481770000000000032e+00 1.212770000000000081e+01 5.598370000000000068e+00 1.725079999999999947e+00 1.200130000000000052e+01 3.183510000000000062e+00 5.284690000000000332e+00 1.162260000000000026e+01 3.117739999999999956e+00 7.284650000000000070e+00 1.647650000000000148e+01 -1.874290000000000012e+00 3.949450000000000127e+00 1.567159999999999975e+01 1.376100000000000101e-01 6.940059999999999896e+00 1.703409999999999869e+01 2.093949999999999978e+00 3.303300000000000125e+00 1.546170000000000044e+01 7.393849999999999589e+00 5.590100000000000069e-01 1.050919999999999987e+01 5.288969999999999949e+00 4.093890000000000029e+00 1.051270000000000060e+01 3.537859999999999783e+00 5.733899999999999553e-01 1.068929999999999936e+01 1.055469999999999908e+00 4.285120000000000040e+00 1.056659999999999933e+01 5.302099999999999591e-01 1.615390000000000104e+00 1.416990000000000016e+01 -1.370360000000000023e+00 6.270529999999999937e+00 1.450539999999999985e+01 4.755969999999999587e+00 1.983600000000000030e+00 1.440700000000000003e+01 2.338680000000000092e+00 5.574729999999999741e+00 1.408779999999999966e+01 4.281950000000000145e+00 4.852350000000000385e+00 1.745629999999999882e+01 1.281499999999999861e-01 3.739050000000000207e+00 1.729309999999999903e+01 1.906479999999999952e+00 4.241500000000000270e-01 1.756190000000000140e+01 3.682710000000000150e+00 2.344899999999999984e+00 1.759430000000000049e+01
4.834139999999999660e+00 2.967880000000000074e+00 1.145710000000000051e+01 9.574909999999999144e+00 6.500659999999999883e+00 1.211950000000000038e+01 8.802379999999999427e+00 2.940850000000000186e+00 1.121889999999999965e+01 5.125250000000000306e+00 6.723639999999999617e+00 1.204030000000000022e+01 2.869610000000000216e+00 1.903610000000000024e+00 1.837979999999999947e+01 2.879799999999999915e+00 4.164229999999999876e+00 1.531460000000000043e+01 5.664380000000000415e+00 6.268629999999999924e+00 1.783680000000000021e+01 7.096680000000000099e+00 4.256129999999999747e+00 1.462870000000000026e+01 2.690679999999999961e+00 1.335409999999999986e+00 1.070850000000000080e+01 9.683249999999999247e+00 5.095119999999999649e+00 1.011909999999999954e+01 6.689729999999999954e+00 1.184379999999999988e+00 1.072910000000000075e+01 4.735960000000000392e+00 5.084880000000000067e+00 1.008639999999999937e+01 4.878320000000000434e+00 2.787090000000000067e+00 1.413659999999999961e+01 3.261989999999999945e+00 6.534600000000000186e+00 1.381080000000000041e+01 9.272919999999999163e+00 3.104309999999999903e+00 1.399259999999999948e+01 7.196039999999999992e+00 6.802999999999999936e+00 1.348750000000000071e+01 4.141049999999999898e+00 1.214699999999999946e-01 1.951139999999999830e+01 1.691769999999999996e+00 5.329599999999999893e-01 1.650779999999999959e+01 7.357059999999999711e+00 4.672460000000000058e+00 1.710950000000000060e+01 3.311420000000000030e+00 4.333409999999999762e+00 1.786110000000000042e+01
1.204290000000000083e+00 2.176950000000000163e+00 1.185009999999999941e+01 -1.245970000000000022e+00 5.878879999999999661e+00 1.195989999999999931e+01 5.370040000000000369e+00 1.975880000000000081e+00 1.176290000000000013e+01 2.818220000000000169e+00 5.742779999999999774e+00 1.176779999999999937e+01 -7.573000000000000564e-02 3.025700000000000056e-01 1.682949999999999946e+01 -1.533860000000000001e+00 3.760050000000000114e+00 1.548320000000000007e+01 9.343900000000000539e-01 6.932489999999999597e+00 1.654129999999999967e+01 2.609379999999999811e+00 3.488420000000000076e+00 1.563150000000000084e+01 7.414860000000000007e+00 9.129599999999999937e-01 1.055610000000000070e+01 5.123980000000000423e+00 4.468280000000000030e+00 1.072310000000000052e+01 3.215300000000000047e+00 8.948800000000000088e-01 1.063879999999999981e+01 7.499700000000000255e-01 4.595579999999999998e+00 1.062940000000000040e+01 8.173599999999999755e-01 2.017310000000000159e+00 1.439659999999999940e+01 -9.229199999999999626e-01 6.102000000000000313e+00 1.440729999999999933e+01 5.136180000000000412e+00 1.979759999999999964e+00 1.425900000000000034e+01 3.144890000000000185e+00 5.759470000000000312e+00 1.436679999999999957e+01 4.641750000000000043e+00 3.580979999999999830e+00 1.735650000000000048e+01 5.544099999999999584e-01 4.120000000000000107e+00 1.722530000000000072e+01 -2.568770000000000220e+00 6.194350000000000023e+00 1.802090000000000103e+01 2.848790000000000155e+00 1.020520000000000094e+00 1.724289999999999878e+01
4.383689999999999642e+00 2.386820000000000164e+00 1.097920000000000051e+01 8.568839999999999790e+00 6.538630000000000386e+00 1.198649999999999949e+01 8.364839999999999165e+00 2.602329999999999810e+00 1.163979999999999926e+01 4.876750000000000362e+00 5.953159999999999563e+00 1.172990000000000066e+01 4.581220000000000070e+00 2.757929999999999993e+00 1.840180000000000149e+01 2.798620000000000108e+00 4.265629999999999811e+00 1.504550000000000054e+01 6.749649999999999928e+00 6.895369999999999777e+00 1.802530000000000143e+01 6.635229999999999961e+00 3.944879999999999942e+00 1.486839999999999939e+01 2.159660000000000135e+00 1.170039999999999969e+00 1.059070000000000000e+01 7.520430000000000170e+00 4.710359999999999658e+00 1.022300000000000075e+01 6.406430000000000291e+00 1.031449999999999978e+00 1.028129999999999988e+01 3.473380000000000134e+00 4.704270000000000174e+00 1.008070000000000022e+01 4.397999999999999687e+00 2.775370000000000115e+00 1.383949999999999925e+01 2.430159999999999876e+00 6.495260000000000034e+00 1.369229999999999947e+01 8.678369999999999251e+00 2.448869999999999880e+00 1.422289999999999921e+01 6.497939999999999827e+00 6.408850000000000158e+00 1.381680000000000064e+01 4.096470000000000056e+00 9.829700000000000104e-01 1.526099999999999957e-01 4.691040000000000099e+00 1.080330000000000013e+00 1.645110000000000028e+01 6.800519999999999676e+00 4.193679999999999630e+00 1.757090000000000174e+01 2.845380000000000020e+00 4.513340000000000352e+00 1.760300000000000153e+01
3.939820000000000100e+00 1.317749999999999977e+00 1.133580000000000076e+01 2.257899999999999796e+00 4.742499999999999716e+00 1.171930000000000049e+01 1.346999999999999933e-02 1.379979999999999984e+00 1.110670000000000002e+01 -1.924160000000000093e+00 4.503700000000000259e+00 1.197339999999999982e+01 3.876539999999999875e+00 4.532659999999999911e+00 1.817599999999999838e+01 5.279759999999999565e+00 2.802540000000000031e+00 1.489250000000000007e+01 2.454699999999999882e+00 1.610670000000000046e+00 1.876640000000000086e+01 1.080940000000000012e+00 3.153880000000000017e+00 1.496640000000000015e+01 -1.940339999999999954e+00 6.754929999999999879e+00 1.018640000000000079e+01 1.024400000000000033e-01 3.667499999999999982e+00 9.990410000000000679e+00 5.871419999999999639e+00 2.977799999999999891e-01 9.969879999999999853e+00 4.080980000000000274e+00 3.693929999999999936e+00 1.014840000000000053e+01 -7.393899999999999917e-01 1.527279999999999971e+00 1.372729999999999961e+01 4.587290000000000312e+00 5.133530000000000371e+00 1.398620000000000019e+01 3.225519999999999943e+00 1.487230000000000052e+00 1.371550000000000047e+01 5.300099999999999811e-01 5.224249999999999616e+00 1.351329999999999920e+01 3.807960000000000012e+00 3.299080000000000013e+00 4.419000000000000150e-01 5.716190000000000104e+00 2.718370000000000175e+00 1.730549999999999855e+01 3.526500000000000190e-01 1.879099999999999937e-01 1.775829999999999842e+01 1.488969999999999905e+00 3.833070000000000199e+00 1.740319999999999823e+01
2.228950000000000209e+00 9.907799999999999940e-01 1.190489999999999959e+01 2.649500000000000188e-01 4.529969999999999608e+00 1.247850000000000037e+01 6.331339999999999968e+00 9.982299999999999507e-01 1.171659999999999968e+01 4.681530000000000413e+00 4.509920000000000151e+00 1.191290000000000049e+01 8.287789999999999324e+00 2.288399999999999879e-01 1.667739999999999867e+01 -1.646770000000000067e+00 3.409370000000000012e+00 1.570529999999999937e+01 4.135440000000000005e+00 3.248800000000000021e-01 1.518210000000000015e+01 2.847729999999999873e+00 3.989759999999999973e+00 1.626379999999999981e+01 2.656000000000000028e-02 6.800000000000000488e-04 1.068180000000000085e+01 -1.783009999999999984e+00 3.394579999999999931e+00 1.074210000000000065e+01 2.622099999999999986e-01 6.429870000000000196e+00 1.060229999999999961e+01 2.146500000000000075e+00 3.291879999999999917e+00 1.096000000000000085e+01 6.017200000000000326e-01 2.740069999999999784e+00 1.440130000000000088e+01 -1.599220000000000086e+00 6.121950000000000003e+00 1.396010000000000062e+01 4.744049999999999656e+00 3.070339999999999847e+00 1.412420000000000009e+01 2.305390000000000050e+00 6.067910000000000359e+00 1.377510000000000012e+01 2.662459999999999827e+00 1.403100000000000014e+00 1.720100000000000051e+01 5.775689999999999991e+00 1.208820000000000006e+00 1.723979999999999890e+01 -2.606800000000000228e-01 4.674660000000000259e+00 1.765330000000000155e+01 4.752399999999999958e-01 2.643470000000000208e+00 1.840360000000000085e+01