7.939267647000000316e+00 0.000000000000000000e+00 0.000000000000000000e+00 -4.024124103000000119e+00 6.969987896000000127e+00 0.000000000000000000e+00 0.000000000000000000e+00 0.000000000000000000e+00 2.000000000000000000e+01
1.351832202800000005e+01 0.000000000000000000e+00 0.000000000000000000e+00 -2.047092929000000172e+00 3.545669211999999959e+00 0.000000000000000000e+00 0.000000000000000000e+00 0.000000000000000000e+00 2.000000000000000000e+01
