1.622179999999999955e+00 2.292040000000000077e+00 1.227810000000000024e+01 -8.136200000000000099e-01 5.703820000000000334e+00 1.089610000000000056e+01 5.642850000000000144e+00 1.946399999999999908e+00 1.134789999999999921e+01 3.367379999999999818e+00 5.719630000000000436e+00 1.186890000000000001e+01 -3.158160000000000078e+00 5.507119999999999571e+00 1.577239999999999931e+01 6.101029999999999731e+00 1.671699999999999964e+00 1.627309999999999945e+01 7.326899999999999524e-01 5.494519999999999627e+00 1.487979999999999947e+01 2.159819999999999851e+00 2.257130000000000081e+00 1.574540000000000006e+01 -4.336999999999999883e-02 1.086389999999999967e+00 1.026960000000000051e+01 4.915919999999999845e+00 4.345240000000000435e+00 1.026219999999999999e+01 3.123800000000000132e+00 1.070740000000000025e+00 9.956419999999999604e+00 1.453580000000000094e+00 4.510279999999999845e+00 1.029320000000000057e+01 3.713000000000000328e-02 3.151470000000000216e+00 1.419319999999999915e+01 -1.819150000000000045e+00 6.772859999999999658e+00 1.347530000000000072e+01 4.051599999999999646e+00 3.522349999999999870e+00 1.314489999999999981e+01 6.479219999999999757e+00 4.132600000000000162e-01 1.391639999999999944e+01 4.373099999999999765e-01 8.517799999999999816e-01 1.746849999999999881e+01 -1.511929999999999996e+00 4.449550000000000338e+00 1.702919999999999945e+01 3.865559999999999885e+00 5.603200000000000403e-01 1.656660000000000110e+01 2.546650000000000080e+00 4.612009999999999721e+00 1.699930000000000163e+01
3.569899999999999740e-01 5.512200000000000433e-01 8.410679999999999268e+00 8.440580000000000638e+00 1.639199999999999990e+00 9.049120000000000275e+00 1.038055999999999912e+01 2.640909999999999869e+00 1.321069999999999922e+01 4.614329999999999821e+00 2.186739999999999906e+00 1.033699999999999974e+01 9.647000000000000020e-01 2.326200000000000045e+00 1.381559999999999988e+01 5.182730000000000281e+00 6.935400000000000453e-01 1.795929999999999893e+01 8.304220000000000823e+00 3.145150000000000112e+00 1.734130000000000038e+01 1.008110000000000062e+00 2.974100000000000077e-01 1.759069999999999823e+01 9.373329999999999274e+00 3.539159999999999862e+00 7.481770000000000032e+00 5.932579999999999742e+00 2.507350000000000190e+00 8.300929999999999254e+00 9.208370000000000388e+00 1.234269999999999978e+00 1.156199999999999939e+01 3.725999999999999868e-01 3.173849999999999838e+00 9.011649999999999494e+00 3.199879999999999836e+00 8.290100000000000247e-01 1.560769999999999946e+01 4.882699999999999818e+00 2.254299999999999915e-01 1.183099999999999952e+01 6.147610000000000241e+00 2.419350000000000112e+00 1.645319999999999894e+01 8.727700000000000458e-01 4.188999999999999946e-01 1.212589999999999968e+01 1.164286000000000065e+01 9.184799999999999631e-01 1.499820000000000064e+01 9.914389999999999148e+00 1.955719999999999903e+00 1.905730000000000146e+01 1.338949000000000034e+01 2.561000000000000082e-02 1.227599999999999941e-01 2.967989999999999906e+00 1.828629999999999978e+00 1.897400000000000020e+01
