4.465281808114451856e+00 -2.115296727387546927e+00 9.413783309223799911e-02 -2.115296727387546927e+00 1.515862263043678881e+00 -2.824183346511757176e+00 9.413783309223799911e-02 -2.824183346511757176e+00 1.293365961025702449e+00
4.369051824631802639e+00 -4.505961641904723813e-01 -2.139818712129585965e+00 -4.505961641904723813e-01 -1.830990802919647997e+00 -3.084084800433079199e+00 -2.139818712129585965e+00 -3.084084800433079199e+00 -2.613109524380376580e+00
