8.261912917000000078e+00 0.000000000000000000e+00 0.000000000000000000e+00 -3.862104518999999847e+00 7.025328763000000087e+00 0.000000000000000000e+00 4.272547429999999924e-01 -5.252658600000000011e-02 1.052774520700000060e+01
8.194592026000000473e+00 0.000000000000000000e+00 0.000000000000000000e+00 -3.830634771000000161e+00 6.968083981999999565e+00 0.000000000000000000e+00 4.237733260000000057e-01 -5.209858099999999798e-02 1.044196153899999935e+01
8.066550279999999518e+00 0.000000000000000000e+00 0.000000000000000000e+00 -3.916341993000000077e+00 7.171172334000000426e+00 0.000000000000000000e+00 5.165542349999999727e-01 -1.859948339999999978e-01 1.086558916699999955e+01
8.315735902000000124e+00 0.000000000000000000e+00 0.000000000000000000e+00 -4.080109446999999889e+00 7.422308433999999622e+00 0.000000000000000000e+00 4.658250230000000047e-01 -5.504655499999999702e-02 1.088054843199999944e+01
8.065979151000000513e+00 0.000000000000000000e+00 0.000000000000000000e+00 -3.916064706999999867e+00 7.170664599000000194e+00 0.000000000000000000e+00 5.165176620000000440e-01 -1.859816659999999899e-01 1.086481986000000077e+01
8.325008668000000611e+00 0.000000000000000000e+00 0.000000000000000000e+00 -3.891599187999999820e+00 7.078980792000000299e+00 0.000000000000000000e+00 4.305176629999999949e-01 -5.292772899999999975e-02 1.060814498799999939e+01
8.560793645000000396e+00 0.000000000000000000e+00 0.000000000000000000e+00 -4.001818968000000254e+00 7.279475156000000169e+00 0.000000000000000000e+00 4.427109949999999960e-01 -5.442677399999999721e-02 1.090859407099999956e+01
8.225675480999999678e+00 0.000000000000000000e+00 0.000000000000000000e+00 -3.845165007999999940e+00 6.994515086999999909e+00 0.000000000000000000e+00 4.253807689999999919e-01 -5.229620000000000102e-02 1.048156964200000019e+01
8.357174794000000517e+00 0.000000000000000000e+00 0.000000000000000000e+00 -4.121539514000000182e+00 7.222365281000000081e+00 0.000000000000000000e+00 5.590985920000000053e-01 -9.696461300000000505e-02 1.075061107900000046e+01
8.298299116999999114e+00 0.000000000000000000e+00 0.000000000000000000e+00 -3.879113570999999983e+00 7.056268936000000380e+00 0.000000000000000000e+00 4.291364109999999954e-01 -5.275791800000000087e-02 1.057411033400000022e+01
7.844808847000000362e+00 0.000000000000000000e+00 0.000000000000000000e+00 -3.849049448000000151e+00 7.001976920999999798e+00 0.000000000000000000e+00 4.394449639999999935e-01 -5.192922199999999711e-02 1.026437390599999944e+01
7.851966754000000215e+00 0.000000000000000000e+00 0.000000000000000000e+00 -3.852561469999999932e+00 7.008365795999999648e+00 0.000000000000000000e+00 4.398459310000000233e-01 -5.197660500000000211e-02 1.027373951899999938e+01
8.052269932999999824e+00 0.000000000000000000e+00 0.000000000000000000e+00 -3.909408828000000113e+00 7.158477089999999876e+00 0.000000000000000000e+00 5.156397710000000245e-01 -1.856655650000000046e-01 1.084635363599999991e+01
8.173547827000000154e+00 0.000000000000000000e+00 0.000000000000000000e+00 -3.820797473999999916e+00 6.950189529000000199e+00 0.000000000000000000e+00 4.226850509999999783e-01 -5.196478899999999734e-02 1.041514596300000051e+01
8.480445079000000774e+00 0.000000000000000000e+00 0.000000000000000000e+00 -3.964259317999999865e+00 7.211152590000000195e+00 0.000000000000000000e+00 4.385558669999999881e-01 -5.391594300000000090e-02 1.080620988499999946e+01
