1.979989999999999917e+00 8.651400000000000201e-01 1.592910000000000048e+00 2.147799999999999987e-01 4.661410000000000053e+00 1.640919999999999934e+00 6.623529999999999696e+00 1.488080000000000069e+00 1.959249999999999936e+00 4.175270000000000259e+00 5.475220000000000198e+00 3.962040000000000006e+00 7.233600000000000030e-01 2.749620000000000175e+00 8.462669999999999249e+00 -1.419030000000000014e+00 6.441539999999999822e+00 8.451739999999999142e+00 4.714859999999999829e+00 2.193000000000000060e+00 8.523989999999999512e+00 2.889670000000000183e+00 6.081120000000000303e+00 8.190879999999999939e+00 4.751520000000000188e+00 6.849529999999999674e+00 1.028584999999999994e+01 7.104519999999999946e+00 3.070219999999999949e+00 1.040044999999999931e+01 -6.790999999999999814e-02 6.903760000000000119e+00 2.357000000000000067e-02 3.058580000000000076e+00 3.721769999999999801e+00 1.026425000000000054e+01 2.051159999999999872e+00 1.386439999999999895e+00 6.936110000000000220e+00 5.770999999999999464e-01 5.125449999999999839e+00 7.156710000000000349e+00 6.399540000000000006e+00 9.323200000000000376e-01 6.884339999999999904e+00 5.136820000000000164e+00 4.758009999999999629e+00 7.060920000000000307e+00 6.343800000000000550e-01 2.218220000000000081e+00 3.224650000000000016e+00 -1.653999999999999915e+00 5.537469999999999892e+00 3.572729999999999961e+00 4.314420000000000144e+00 2.912230000000000096e+00 2.906919999999999948e+00 1.775910000000000100e+00 6.633289999999999687e+00 3.155909999999999993e+00
-1.496820000000000039e+00 7.112800000000000011e+00 2.757730000000000015e+00 7.686800000000000299e-01 3.946709999999999940e+00 2.626069999999999904e+00 6.881149999999999878e+00 6.605400000000000160e-01 2.249760000000000204e+00 4.772829999999999906e+00 3.866410000000000124e+00 1.576999999999999957e+00 3.142300000000000093e-01 3.315770000000000106e+00 8.727359999999999118e+00 -1.077420000000000044e+00 6.908009999999999984e+00 7.840760000000000396e+00 4.750160000000000160e+00 3.773590000000000000e+00 7.033229999999999649e+00 1.816810000000000036e+00 6.225929999999999964e+00 9.885650000000000048e+00 7.741299999999999848e+00 2.673800000000000066e-01 9.900430000000000064e+00 5.845979999999999954e+00 3.366449999999999942e+00 9.495870000000000033e+00 -1.137599999999999945e+00 7.193229999999999791e+00 1.098800000000000054e-01 2.126170000000000115e+00 3.210300000000000153e+00 1.035959000000000074e+01 2.484570000000000167e+00 2.178129999999999900e+00 7.080370000000000275e+00 1.308459999999999956e+00 6.034740000000000215e+00 7.331059999999999910e+00 -1.006780000000000008e+00 2.933640000000000025e+00 6.560780000000000278e+00 4.828229999999999578e+00 6.409580000000000055e+00 7.174430000000000085e+00 5.929900000000000171e-01 1.723910000000000053e+00 3.867550000000000043e+00 -1.408849999999999936e+00 4.705910000000000259e+00 3.584600000000000009e+00 4.682240000000000180e+00 1.720140000000000002e+00 3.563429999999999875e+00 2.861670000000000158e+00 5.434319999999999595e+00 3.481819999999999915e+00
1.803150000000000031e+00 1.088060000000000027e+00 2.226760000000000073e+00 3.556999999999999745e-02 5.157040000000000290e+00 2.239959999999999951e+00 6.352120000000000211e+00 1.551449999999999996e+00 1.993200000000000083e+00 4.284220000000000361e+00 4.988109999999999822e+00 2.649640000000000217e+00 1.959430000000000005e+00 3.271669999999999856e+00 8.734629999999999228e+00 1.510400000000000076e-01 6.788210000000000299e+00 8.714100000000000179e+00 3.934410000000000185e+00 2.148759999999999781e+00 6.078240000000000087e+00 1.420830000000000037e+00 5.373759999999999870e+00 6.101880000000000415e+00 4.041610000000000369e+00 6.778349999999999653e+00 7.798399999999999777e-01 5.924470000000000347e+00 3.867189999999999905e+00 7.852400000000000491e-01 3.956679999999999975e+00 3.268900000000000139e-01 6.846100000000000518e-01 1.879769999999999941e+00 3.504529999999999923e+00 6.583700000000000108e-01 2.145179999999999865e+00 9.271899999999999586e-01 7.710490000000000066e+00 -3.656200000000000006e-01 4.247480000000000366e+00 7.621500000000000163e+00 6.080739999999999590e+00 4.880399999999999738e-01 7.127559999999999896e+00 3.840689999999999937e+00 4.337299999999999933e+00 7.292869999999999742e+00 -5.238000000000000295e-02 2.742859999999999854e+00 3.574260000000000215e+00 -1.577809999999999935e+00 5.933569999999999567e+00 4.181770000000000209e+00 4.131590000000000096e+00 2.026359999999999939e+00 3.576649999999999885e+00 2.231899999999999995e+00 6.048119999999999941e+00 3.665840000000000209e+00
2.136000000000000121e+00 1.881820000000000048e+00 3.234840000000000160e+00 7.077900000000000302e-01 5.785529999999999617e+00 2.885180000000000078e+00 5.978369999999999962e+00 3.342200000000000171e-01 1.053900000000000059e+00 4.322569999999999801e+00 4.425900000000000389e+00 1.702849999999999975e+00 -1.005700000000000066e-01 2.501469999999999860e+00 6.177419999999999689e+00 -1.792960000000000109e+00 6.858760000000000190e+00 7.281060000000000088e+00 4.611040000000000028e+00 2.788829999999999920e+00 8.633070000000000022e+00 1.948569999999999913e+00 5.785040000000000404e+00 8.630140000000000811e+00 4.365300000000000402e+00 6.549529999999999852e+00 9.958999999999999797e-02 6.144420000000000215e+00 2.973850000000000104e+00 1.872199999999999975e-01 -7.849000000000000421e-02 6.392159999999999620e+00 4.358400000000000052e-01 2.280330000000000190e+00 3.114660000000000206e+00 3.628899999999999904e-01 2.553430000000000089e+00 2.213620000000000143e+00 6.479230000000000267e+00 2.175499999999999934e-01 5.233869999999999578e+00 6.895539999999999559e+00 5.903159999999999741e+00 1.060589999999999922e+00 7.183029999999999582e+00 4.168070000000000164e+00 5.190450000000000230e+00 6.784510000000000041e+00 -1.742200000000000137e-01 2.920830000000000037e+00 3.516049999999999898e+00 -1.779700000000000060e+00 6.328520000000000145e+00 3.698059999999999903e+00 4.465449999999999697e+00 2.879719999999999835e+00 3.773439999999999905e+00 2.927509999999999835e+00 6.654550000000000409e+00 3.332939999999999792e+00
2.827150000000000052e+00 2.811100000000000265e-01 2.718960000000000043e+00 9.737599999999999589e-01 3.827189999999999870e+00 2.894239999999999924e+00 7.259970000000000034e+00 9.648600000000000509e-01 1.607669999999999932e+00 4.705759999999999721e+00 4.093639999999999723e+00 2.166900000000000048e+00 -5.229099999999999859e-01 3.526069999999999816e+00 8.834669999999999135e+00 2.948469999999999924e+00 1.420200000000000073e-01 7.562299999999999578e+00 4.884739999999999860e+00 3.754049999999999887e+00 7.540130000000000443e+00 1.784999999999999920e+00 6.220900000000000318e+00 1.038195999999999941e+01 4.131070000000000242e+00 7.028539999999999566e+00 1.022526000000000046e+01 5.642599999999999838e+00 3.224829999999999863e+00 1.043435999999999986e+01 2.964139999999999997e+00 4.859999999999999737e-03 1.181999999999999995e-01 1.554510000000000058e+00 3.790739999999999998e+00 1.054885999999999946e+01 2.991029999999999855e+00 2.504189999999999916e+00 6.384070000000000356e+00 7.021300000000000319e-01 5.714610000000000412e+00 7.711190000000000211e+00 7.001299999999999635e+00 2.130269999999999886e+00 6.744369999999999976e+00 5.366060000000000052e+00 6.148609999999999687e+00 6.534049999999999692e+00 7.226299999999999946e-01 1.536350000000000104e+00 3.816129999999999800e+00 -1.400670000000000082e+00 4.964150000000000063e+00 3.467789999999999928e+00 5.189129999999999576e+00 1.414260000000000073e+00 3.608789999999999942e+00 2.897980000000000000e+00 5.689239999999999853e+00 3.412020000000000053e+00
1.491679999999999895e+00 7.830700000000000438e-01 2.198859999999999815e+00 -2.677499999999999880e-01 4.586269999999999847e+00 2.486839999999999939e+00 6.104980000000000295e+00 1.235170000000000101e+00 2.099499999999999922e+00 4.160289999999999822e+00 4.847430000000000128e+00 1.733570000000000055e+00 2.538879999999999804e+00 3.670459999999999834e+00 8.741270000000000095e+00 3.519200000000000106e-01 7.042460000000000164e+00 8.925779999999999603e+00 4.425239999999999618e+00 2.444850000000000190e+00 6.371579999999999799e+00 1.770049999999999901e+00 5.153920000000000279e+00 5.992950000000000443e+00 4.154110000000000191e+00 7.255749999999999922e+00 3.895299999999999874e-01 6.170079999999999565e+00 3.466499999999999915e+00 5.022999999999999687e-01 3.841629999999999878e+00 2.192099999999999882e-01 8.111599999999999921e-01 1.922279999999999989e+00 3.625669999999999948e+00 8.597799999999999887e-01 2.412700000000000067e+00 1.236949999999999994e+00 7.929409999999999847e+00 8.321000000000000618e-02 4.572869999999999990e+00 8.022489999999999455e+00 6.127419999999999867e+00 1.148840000000000083e+00 7.436370000000000147e+00 4.150009999999999977e+00 5.250449999999999839e+00 7.390019999999999811e+00 -1.453599999999999892e-01 2.008509999999999796e+00 3.854060000000000041e+00 -2.306960000000000122e+00 5.867130000000000400e+00 3.766340000000000021e+00 3.821330000000000116e+00 1.870389999999999997e+00 3.927840000000000220e+00 1.478299999999999947e+00 6.133399999999999963e+00 3.713340000000000085e+00
1.805390000000000050e+00 5.263700000000000045e-01 1.731630000000000003e+00 3.064700000000000202e-01 4.588870000000000005e+00 1.932369999999999921e+00 5.596370000000000289e+00 8.467599999999999572e-01 2.270599999999999952e+00 3.869380000000000042e+00 4.487560000000000215e+00 1.976150000000000073e+00 3.461400000000000032e-01 2.441269999999999829e+00 7.484200000000000408e+00 -1.341220000000000079e+00 6.394110000000000404e+00 8.202939999999999898e+00 4.771679999999999922e+00 3.023159999999999847e+00 8.389290000000000802e+00 2.731030000000000069e+00 6.248529999999999696e+00 8.156700000000000728e+00 2.337599999999999956e-01 8.381300000000000416e-01 9.962279999999999802e+00 -1.848619999999999930e+00 4.373219999999999885e+00 2.095499999999999863e-01 4.122600000000000264e+00 1.926999999999999894e-02 9.513000000000000622e-02 2.364879999999999871e+00 4.364819999999999922e+00 9.873580000000000467e+00 2.568709999999999827e+00 1.375119999999999898e+00 6.910470000000000113e+00 5.711199999999999610e-01 4.739440000000000097e+00 6.654370000000000118e+00 5.795630000000000059e+00 1.741219999999999990e+00 6.700510000000000410e+00 4.688100000000000378e+00 5.192840000000000344e+00 6.815800000000000303e+00 6.958000000000000296e-02 2.272580000000000044e+00 3.033209999999999962e+00 -1.692939999999999889e+00 5.948190000000000310e+00 3.469469999999999832e+00 3.511420000000000208e+00 2.068509999999999849e+00 3.102189999999999781e+00 2.173169999999999824e+00 5.846820000000000128e+00 3.775830000000000020e+00
2.186739999999999906e+00 1.075450000000000017e+00 1.932330000000000103e+00 6.178399999999999448e-01 4.335700000000000109e+00 1.947689999999999921e+00 6.495490000000000208e+00 1.352249999999999952e+00 1.754529999999999923e+00 4.334389999999999965e+00 4.775249999999999773e+00 4.145970000000000155e+00 5.670800000000000285e-01 2.567750000000000199e+00 9.418879999999999697e+00 -1.100170000000000092e+00 7.057680000000000398e+00 8.978120000000000545e+00 4.210090000000000110e+00 2.258799999999999919e+00 6.771130000000000315e+00 1.712979999999999947e+00 5.926029999999999909e+00 6.691480000000000317e+00 -3.879300000000000193e+00 7.216619999999999813e+00 9.490999999999999437e-02 -1.935110000000000108e+00 3.685639999999999805e+00 4.007399999999999851e-01 2.463999999999999871e-02 7.136560000000000237e+00 2.814599999999999880e-01 2.795069999999999943e+00 3.641750000000000043e+00 1.053659999999999997e+01 1.820540000000000047e+00 1.478169999999999984e+00 7.262340000000000018e+00 -5.589600000000000124e-01 4.772599999999999731e+00 7.485170000000000101e+00 6.501219999999999999e+00 1.196339999999999959e+00 7.061810000000000365e+00 4.283750000000000391e+00 4.867930000000000312e+00 6.887999999999999901e+00 1.876700000000000035e-01 2.206430000000000113e+00 3.593269999999999964e+00 -1.712369999999999948e+00 5.952740000000000364e+00 3.473160000000000025e+00 4.448550000000000004e+00 2.114840000000000053e+00 3.691030000000000033e+00 1.972159999999999913e+00 5.818120000000000402e+00 3.520259999999999945e+00
7.259999999999999787e-01 2.582599999999999896e-01 2.197810000000000041e+00 -6.195800000000000196e-01 4.367890000000000050e+00 1.670600000000000085e+00 5.282580000000000275e+00 9.802600000000000202e-01 2.381520000000000081e+00 3.063229999999999897e+00 4.498429999999999929e+00 2.291409999999999947e+00 1.148409999999999931e+00 2.958909999999999929e+00 9.001950000000000784e+00 -6.587399999999999922e-01 6.550410000000000288e+00 9.231840000000000046e+00 5.373789999999999623e+00 2.904209999999999958e+00 7.771910000000000096e+00 3.239370000000000083e+00 6.209310000000000329e+00 9.303549999999999542e+00 1.245120000000000005e+00 6.950399999999999912e-01 1.056891000000000069e+01 -1.347059999999999924e+00 4.006890000000000285e+00 1.039001000000000019e+01 6.343600000000000350e-01 7.194270000000000387e+00 2.038500000000000034e-01 3.255430000000000046e+00 3.880069999999999908e+00 1.054800999999999966e+01 3.184200000000000141e+00 1.363520000000000065e+00 7.456760000000000055e+00 1.372719999999999940e+00 5.361489999999999867e+00 7.803329999999999878e+00 7.617619999999999614e+00 1.420129999999999892e+00 7.268110000000000070e+00 5.113349999999999618e+00 5.333389999999999631e+00 7.411330000000000418e+00 -8.160699999999999621e-01 1.894830000000000014e+00 3.430590000000000028e+00 -2.688060000000000116e+00 5.428490000000000038e+00 3.204209999999999781e+00 3.143940000000000179e+00 2.097469999999999946e+00 3.527509999999999923e+00 1.729579999999999895e+00 6.256260000000000154e+00 3.687110000000000110e+00
1.251659999999999995e+00 5.657900000000000151e-01 2.007490000000000219e+00 -3.134299999999999864e-01 3.987649999999999917e+00 1.748070000000000013e+00 5.507380000000000386e+00 8.461800000000000432e-01 2.299879999999999924e+00 4.257640000000000313e+00 4.295429999999999637e+00 2.211889999999999912e+00 2.500370000000000203e+00 4.415309999999999846e+00 9.075649999999999551e+00 4.684359999999999857e+00 2.872399999999999953e-01 8.830550000000000566e+00 4.522820000000000285e+00 2.628109999999999946e+00 6.065400000000000347e+00 1.690260000000000096e+00 5.988889999999999603e+00 6.229020000000000223e+00 3.551750000000000185e+00 6.457189999999999763e+00 7.368299999999999850e-01 5.752369999999999983e+00 2.786979999999999791e+00 3.737699999999999911e-01 -2.017400000000000027e-01 6.644260000000000055e+00 6.300900000000000389e-01 1.787509999999999932e+00 3.191940000000000222e+00 7.434699999999999642e-01 2.726100000000000190e+00 1.743509999999999893e+00 7.732070000000000221e+00 2.066099999999999881e-01 4.678919999999999746e+00 7.861989999999999590e+00 6.566069999999999851e+00 1.322589999999999932e+00 7.252580000000000027e+00 4.133160000000000167e+00 5.182610000000000383e+00 7.329769999999999897e+00 -2.264200000000000101e-01 2.183749999999999858e+00 3.840749999999999886e+00 -1.724460000000000104e+00 5.591700000000000337e+00 3.531010000000000204e+00 3.264699999999999935e+00 2.359480000000000022e+00 3.660590000000000011e+00 1.708639999999999937e+00 5.911710000000000242e+00 3.621609999999999996e+00
3.113770000000000149e+00 1.344419999999999948e+00 4.152910000000000323e+00 -6.353999999999999648e-01 5.036529999999999951e+00 1.710229999999999917e+00 6.867329999999999934e+00 5.177800000000000180e-01 2.194459999999999855e+00 4.027079999999999771e+00 4.381569999999999965e+00 1.304450000000000109e+00 4.318400000000000016e-01 2.889990000000000059e+00 6.463110000000000355e+00 -1.288340000000000041e+00 5.795309999999999739e+00 9.108140000000000569e+00 4.295309999999999739e+00 3.046139999999999848e+00 7.775089999999999613e+00 2.631219999999999892e+00 5.512809999999999988e+00 8.583890000000000242e+00 4.117149999999999643e+00 7.080910000000000259e+00 4.936999999999999722e-02 6.329019999999999868e+00 3.440580000000000194e+00 4.830999999999999878e-02 2.168899999999999995e-01 7.238170000000000215e+00 1.036541000000000068e+01 2.791090000000000071e+00 3.041970000000000063e+00 1.032790999999999926e+01 2.654770000000000074e+00 1.223880000000000079e+00 6.859119999999999884e+00 6.680000000000000382e-01 5.637730000000000352e+00 6.802229999999999777e+00 6.656410000000000160e+00 1.696460000000000079e+00 7.629279999999999617e+00 5.114650000000000141e+00 5.343390000000000306e+00 7.187700000000000422e+00 3.315000000000000169e-01 2.383770000000000167e+00 3.748359999999999914e+00 -1.570160000000000000e+00 6.212489999999999846e+00 3.911119999999999930e+00 5.012290000000000134e+00 2.924420000000000019e+00 3.151660000000000128e+00 1.725249999999999950e+00 5.693290000000000184e+00 3.295749999999999957e+00
1.363189999999999902e+00 9.669900000000000162e-01 2.246950000000000003e+00 -5.032799999999999496e-01 4.422920000000000407e+00 2.009669999999999845e+00 5.506420000000000314e+00 7.225399999999999601e-01 2.400799999999999823e+00 3.350000000000000089e+00 4.328149999999999942e+00 2.112019999999999786e+00 1.006480000000000041e+00 3.235409999999999897e+00 8.855029999999999291e+00 -1.163459999999999939e+00 6.656909999999999883e+00 9.367490000000000094e+00 5.502139999999999809e+00 2.921850000000000058e+00 8.292529999999999291e+00 3.016830000000000123e+00 5.871010000000000062e+00 8.800720000000000098e+00 1.002340000000000009e+00 4.083999999999999853e-01 1.072441000000000066e+01 -1.013139999999999930e+00 4.081850000000000200e+00 1.043101000000000056e+01 6.779399999999999871e-01 6.913219999999999921e+00 1.842300000000000049e-01 3.051600000000000090e+00 3.541710000000000136e+00 1.056521000000000043e+01 3.419179999999999886e+00 1.458450000000000024e+00 7.744830000000000325e+00 6.614700000000000024e-01 5.470629999999999882e+00 7.426840000000000330e+00 -4.060000000000000275e-01 1.998450000000000060e+00 7.193319999999999936e+00 5.126870000000000260e+00 5.481950000000000323e+00 7.386449999999999960e+00 -7.646300000000000319e-01 2.271209999999999951e+00 3.658990000000000187e+00 -2.817629999999999857e+00 5.611410000000000231e+00 3.043530000000000069e+00 3.330090000000000217e+00 1.950420000000000043e+00 3.385180000000000078e+00 1.186280000000000001e+00 5.134999999999999787e+00 3.365860000000000074e+00
-1.773830000000000018e+00 5.439869999999999983e+00 2.234449999999999825e+00 -3.300299999999999900e-01 1.785889999999999977e+00 2.359989999999999810e+00 2.311690000000000023e+00 5.897870000000000168e+00 1.992510000000000003e+00 4.264490000000000336e+00 1.822759999999999936e+00 2.015760000000000218e+00 9.502099999999999991e-01 4.861229999999999940e+00 9.785370000000000346e+00 2.938330000000000108e+00 1.063330000000000108e+00 9.152710000000000790e+00 4.220209999999999795e+00 4.385749999999999815e+00 8.548299999999999343e+00 6.552220000000000155e+00 1.031570000000000098e+00 8.294019999999999726e+00 6.123800000000000354e-01 2.057160000000000100e+00 1.038790999999999976e+01 -1.334089999999999998e+00 5.557909999999999684e+00 1.069021000000000043e+01 4.806099999999999817e+00 2.293750000000000178e+00 1.060861000000000054e+01 3.332619999999999916e+00 6.062219999999999942e+00 1.033891000000000027e+01 2.298169999999999824e+00 3.322159999999999780e+00 7.870619999999999727e+00 5.353700000000000125e-01 6.655280000000000307e+00 7.807780000000000165e+00 6.290680000000000049e+00 3.323469999999999924e+00 7.056420000000000137e+00 -3.567390000000000061e+00 7.168389999999999596e+00 7.798219999999999708e+00 4.317050000000000054e+00 6.937960000000000349e+00 3.495620000000000172e+00 5.925629999999999953e+00 3.000840000000000174e+00 3.799900000000000055e+00 1.719799999999999940e-01 6.578269999999999840e+00 3.684600000000000097e+00 1.833690000000000042e+00 3.472579999999999778e+00 3.096400000000000041e+00
2.080369999999999830e+00 9.229500000000000481e-01 2.386559999999999793e+00 1.807100000000000095e-01 4.270959999999999646e+00 1.601110000000000033e+00 5.864969999999999573e+00 7.986699999999999910e-01 2.133179999999999854e+00 4.152960000000000207e+00 4.606010000000000382e+00 2.535299999999999887e+00 3.079500000000000015e-01 2.554250000000000131e+00 8.693199999999999150e+00 -1.681310000000000082e+00 6.264509999999999579e+00 8.428819999999999979e+00 4.382229999999999848e+00 2.520929999999999893e+00 8.451549999999999230e+00 2.514829999999999899e+00 6.494530000000000136e+00 6.712959999999999816e+00 5.238999999999999907e-02 2.794599999999999862e-01 2.186099999999999988e-01 -1.206779999999999964e+00 4.105100000000000193e+00 1.002018999999999949e+01 4.266960000000000086e+00 7.799599999999999866e-01 1.690699999999999981e-01 2.990629999999999900e+00 4.910759999999999792e+00 1.301400000000000057e-01 2.268380000000000063e+00 1.637089999999999934e+00 7.404429999999999623e+00 1.672800000000000120e-01 5.712559999999999860e+00 6.610739999999999839e+00 6.217670000000000030e+00 1.814959999999999907e+00 6.476499999999999702e+00 4.606449999999999712e+00 4.987599999999999589e+00 6.919369999999999798e+00 1.240699999999999997e-01 2.407049999999999912e+00 3.259149999999999991e+00 -1.734359999999999902e+00 5.909089999999999954e+00 3.660260000000000069e+00 4.054190000000000182e+00 2.217029999999999834e+00 3.680000000000000160e+00 1.906660000000000021e+00 5.968810000000000393e+00 3.494650000000000034e+00
3.234199999999999853e-01 1.321400000000000075e-01 2.190710000000000157e+00 -1.244639999999999969e+00 3.495610000000000106e+00 2.285000000000000142e+00 1.655200000000000005e-01 7.025669999999999860e+00 1.812580000000000080e+00 2.446410000000000196e+00 3.615950000000000220e+00 2.151499999999999968e+00 1.789709999999999912e+00 2.939319999999999933e+00 8.487920000000000798e+00 2.649999999999999925e-02 7.080890000000000128e+00 8.575179999999999580e+00 5.880029999999999646e+00 3.537069999999999936e+00 8.651690000000000325e+00 3.559190000000000076e+00 6.402230000000000310e+00 8.953500000000000014e+00 1.086009999999999920e+00 1.003120000000000012e+00 1.043482999999999983e+01 1.418899999999999884e-01 5.032320000000000348e+00 1.065390999999999977e+01 5.602280000000000371e+00 1.141710000000000003e+00 1.036294000000000004e+01 3.714049999999999851e+00 4.244970000000000354e+00 1.031753999999999927e+01 3.829130000000000145e+00 2.268769999999999953e+00 6.970209999999999795e+00 1.636700000000000044e+00 5.559510000000000396e+00 7.524960000000000093e+00 -4.823299999999999810e-01 1.852910000000000057e+00 7.416240000000000165e+00 -2.417320000000000135e+00 6.014429999999999943e+00 7.335790000000000255e+00 6.203030000000000044e+00 8.890000000000000124e-01 3.436189999999999856e+00 4.423910000000000231e+00 4.879139999999999588e+00 3.264879999999999782e+00 2.709970000000000212e+00 1.183529999999999971e+00 3.257019999999999804e+00 6.162300000000000555e-01 4.525079999999999991e+00 3.755320000000000213e+00
6.886900000000000244e-01 1.392400000000000027e-01 2.133989999999999831e+00 -6.044500000000000428e-01 4.354809999999999626e+00 1.641790000000000083e+00 5.182459999999999845e+00 9.795099999999999918e-01 2.376889999999999947e+00 2.988259999999999916e+00 4.472640000000000171e+00 2.365200000000000191e+00 1.122060000000000057e+00 2.893909999999999982e+00 8.940609999999999502e+00 -6.157299999999999995e-01 6.467130000000000045e+00 9.099629999999999441e+00 5.313430000000000319e+00 2.928920000000000190e+00 7.654630000000000045e+00 3.299920000000000186e+00 6.288409999999999833e+00 9.344849999999999213e+00 1.253409999999999913e+00 6.440500000000000114e-01 1.047641999999999918e+01 -1.323560000000000070e+00 3.937660000000000160e+00 1.033642000000000039e+01 6.711599999999999788e-01 7.226110000000000255e+00 2.368300000000000127e-01 3.315580000000000194e+00 3.903659999999999908e+00 1.048952000000000062e+01 3.066019999999999968e+00 1.412160000000000082e+00 7.374530000000000030e+00 1.438590000000000035e+00 5.285739999999999661e+00 7.815299999999999692e+00 7.579259999999999664e+00 1.280350000000000099e+00 7.303230000000000111e+00 5.150540000000000340e+00 5.268200000000000216e+00 7.454100000000000392e+00 -8.591499999999999693e-01 1.989270000000000094e+00 3.301750000000000185e+00 -2.670199999999999907e+00 5.433029999999999582e+00 3.306779999999999831e+00 3.098869999999999791e+00 2.135139999999999816e+00 3.495000000000000107e+00 1.760999999999999899e+00 6.303609999999999935e+00 3.680050000000000043e+00
1.392099999999999893e+00 5.109000000000000208e-01 1.991829999999999989e+00 1.019300000000000067e-01 4.565529999999999866e+00 1.566210000000000102e+00 5.499979999999999869e+00 5.847700000000000120e-01 2.449980000000000047e+00 3.386350000000000193e+00 4.322750000000000092e+00 2.382400000000000073e+00 8.312800000000000189e-01 2.981640000000000068e+00 9.442800000000000082e+00 -1.601590000000000069e+00 6.360520000000000174e+00 7.437339999999999840e+00 5.291520000000000223e+00 2.434320000000000039e+00 8.461059999999999803e+00 2.751580000000000137e+00 6.410099999999999909e+00 8.538209999999999411e+00 1.113909999999999956e+00 3.725200000000000178e-01 1.021701999999999977e+01 -1.483780000000000099e+00 3.890120000000000022e+00 1.043881999999999977e+01 1.880100000000000104e-01 6.879290000000000127e+00 1.806899999999999895e-01 3.225410000000000110e+00 3.811230000000000118e+00 1.036612000000000045e+01 3.018600000000000172e+00 1.729850000000000110e+00 7.240160000000000373e+00 8.132599999999999829e-01 5.116480000000000139e+00 7.397829999999999906e+00 7.286480000000000068e+00 1.647969999999999935e+00 7.240509999999999557e+00 4.518559999999999910e+00 4.722870000000000346e+00 7.498140000000000249e+00 -3.449499999999999789e-01 2.243129999999999846e+00 2.846820000000000128e+00 -2.481529999999999792e+00 5.368890000000000384e+00 3.247339999999999893e+00 3.489320000000000199e+00 1.899880000000000013e+00 3.295790000000000219e+00 1.581229999999999913e+00 5.569300000000000139e+00 3.828809999999999825e+00
1.889489999999999892e+00 1.027660000000000018e+00 2.699409999999999865e+00 -6.934999999999999498e-02 4.392070000000000363e+00 1.418830000000000036e+00 5.861729999999999663e+00 2.268499999999999961e-01 1.999349999999999961e+00 4.120879999999999654e+00 4.614519999999999733e+00 2.268380000000000063e+00 5.924099999999999921e-01 3.508999999999999897e+00 8.289910000000000778e+00 -1.818820000000000103e+00 7.213119999999999976e+00 8.940139999999999532e+00 4.533660000000000245e+00 3.436729999999999841e+00 8.570259999999999323e+00 2.624060000000000059e+00 7.210359999999999658e+00 8.588699999999999335e+00 -3.517009999999999970e+00 7.101600000000000357e+00 4.912400000000000100e-01 -1.377199999999999980e+00 3.219969999999999999e+00 1.856999999999999970e-02 8.424800000000000066e-01 7.351040000000000241e+00 1.062562999999999924e+01 2.803370000000000140e+00 3.201639999999999819e+00 6.159000000000000030e-01 2.366899999999999782e+00 1.780899999999999928e+00 7.238699999999999690e+00 6.303199999999999914e-01 6.180930000000000035e+00 7.175449999999999662e+00 6.640909999999999869e+00 2.173350000000000115e+00 7.304610000000000269e+00 4.578540000000000276e+00 5.700160000000000338e+00 7.303410000000000402e+00 -4.335399999999999809e-01 1.653639999999999999e+00 3.698179999999999801e+00 -1.385699999999999932e+00 5.933749999999999858e+00 3.153300000000000214e+00 4.477330000000000254e+00 2.053150000000000031e+00 3.408780000000000143e+00 1.864929999999999977e+00 5.262159999999999727e+00 3.218760000000000066e+00
1.917780000000000040e+00 1.425920000000000076e+00 1.853539999999999965e+00 1.557300000000000073e-01 4.523710000000000342e+00 1.995959999999999956e+00 6.435299999999999798e+00 1.084319999999999951e+00 1.968590000000000062e+00 4.755939999999999834e+00 4.920079999999999565e+00 4.518849999999999589e+00 6.120900000000000230e-01 2.528620000000000090e+00 9.525100000000000122e+00 -1.357500000000000095e-01 6.807380000000000209e+00 8.568049999999999500e+00 3.621729999999999894e+00 2.168060000000000098e+00 5.972879999999999967e+00 1.616770000000000040e+00 5.660770000000000302e+00 5.920899999999999608e+00 3.992199999999999971e+00 7.081669999999999909e+00 2.059300000000000019e-01 5.996540000000000425e+00 3.256959999999999855e+00 3.029499999999999971e-01 -1.476099999999999912e-01 7.049280000000000435e+00 6.582400000000000473e-01 2.112659999999999982e+00 3.832510000000000083e+00 3.004700000000000149e-01 1.800929999999999920e+00 7.405300000000000216e-01 7.355599999999999916e+00 -1.060699999999999976e-01 4.326780000000000292e+00 7.367799999999999905e+00 5.535050000000000026e+00 1.197100000000000053e+00 7.268239999999999590e+00 3.950180000000000025e+00 4.696860000000000035e+00 6.759179999999999744e+00 3.443599999999999994e-01 2.443869999999999987e+00 3.541549999999999976e+00 -1.260950000000000015e+00 6.094100000000000072e+00 3.572420000000000151e+00 4.277660000000000018e+00 2.469059999999999810e+00 3.261410000000000142e+00 2.469720000000000137e+00 5.954060000000000130e+00 3.493959999999999955e+00