7.805413912999999759e+00 0.000000000000000000e+00 0.000000000000000000e+00 -3.773085227000000152e+00 6.556478343000000208e+00 0.000000000000000000e+00 2.916106509999999985e-01 -4.658777749999999940e-01 2.011028863199999961e+01
7.675063116999999657e+00 0.000000000000000000e+00 0.000000000000000000e+00 -3.922599334000000049e+00 6.546680315999999777e+00 0.000000000000000000e+00 2.875640800000000066e-02 1.626397729999999875e-01 2.098430983600000133e+01
7.664577290999999626e+00 0.000000000000000000e+00 0.000000000000000000e+00 -3.955330265999999817e+00 6.763406155000000197e+00 0.000000000000000000e+00 -3.632819039999999888e-01 -4.374014580000000207e-01 2.068993274900000046e+01
7.598829807999999630e+00 0.000000000000000000e+00 0.000000000000000000e+00 -3.872448750000000217e+00 6.645468412999999686e+00 0.000000000000000000e+00 1.389098549999999987e-01 8.040293399999999535e-02 2.047342625199999944e+01
8.078442170000000644e+00 0.000000000000000000e+00 0.000000000000000000e+00 -3.905065272999999948e+00 6.785819653999999979e+00 0.000000000000000000e+00 3.018109999999999959e-01 -4.821738740000000023e-01 2.081373333299999828e+01
8.047853784999999149e+00 0.000000000000000000e+00 0.000000000000000000e+00 -3.890279050999999821e+00 6.760125681999999969e+00 0.000000000000000000e+00 3.006682170000000154e-01 -4.803481600000000240e-01 2.073492377099999828e+01
7.475637255999999731e+00 0.000000000000000000e+00 0.000000000000000000e+00 -3.809668446999999958e+00 6.537731796000000095e+00 0.000000000000000000e+00 1.366578430000000011e-01 7.909943799999999414e-02 2.014151019599999870e+01
8.039945876000000879e+00 0.000000000000000000e+00 0.000000000000000000e+00 -3.886456420000000023e+00 6.753483109000000262e+00 0.000000000000000000e+00 3.003727769999999797e-01 -4.798761650000000212e-01 2.071454940799999989e+01
7.945103770000000232e+00 0.000000000000000000e+00 0.000000000000000000e+00 -3.840610375999999881e+00 6.673816582999999802e+00 0.000000000000000000e+00 2.968294710000000114e-01 -4.742153720000000239e-01 2.047019310099999956e+01
8.026761769000000157e+00 0.000000000000000000e+00 0.000000000000000000e+00 -3.880083309999999841e+00 6.742408575999999876e+00 0.000000000000000000e+00 2.998802179999999762e-01 -4.790892520000000210e-01 2.068058116499999954e+01
8.100463463000000530e+00 0.000000000000000000e+00 0.000000000000000000e+00 -3.915710219999999797e+00 6.804317345000000294e+00 0.000000000000000000e+00 3.026337170000000243e-01 -4.834882469999999821e-01 2.087047017900000156e+01
8.017838947999999633e+00 0.000000000000000000e+00 0.000000000000000000e+00 -3.875770077999999952e+00 6.734913485999999949e+00 0.000000000000000000e+00 2.995468609999999976e-01 -4.785566800000000121e-01 2.065759192899999874e+01
8.109519094999999567e+00 0.000000000000000000e+00 0.000000000000000000e+00 -3.920087651999999867e+00 6.811923994999999898e+00 0.000000000000000000e+00 3.029720360000000001e-01 -4.840287460000000097e-01 2.089380159599999942e+01
8.060781006999999221e+00 0.000000000000000000e+00 0.000000000000000000e+00 -3.896527984000000000e+00 6.770984432999999747e+00 0.000000000000000000e+00 3.011511780000000194e-01 -4.811197409999999897e-01 2.076823016100000174e+01
7.952994814000000190e+00 0.000000000000000000e+00 0.000000000000000000e+00 -3.844424854000000114e+00 6.680444988999999723e+00 0.000000000000000000e+00 2.971242809999999901e-01 -4.746863610000000011e-01 2.049052401000000145e+01
8.016648248999999282e+00 0.000000000000000000e+00 0.000000000000000000e+00 -3.875194501999999819e+00 6.733913309000000069e+00 0.000000000000000000e+00 2.995023760000000146e-01 -4.784856109999999774e-01 2.065452414800000014e+01
7.571714778999999673e+00 0.000000000000000000e+00 0.000000000000000000e+00 -3.907408262000000132e+00 6.681462054999999900e+00 0.000000000000000000e+00 -3.588804520000000164e-01 -4.321019879999999924e-01 2.043925759000000042e+01
7.792300563000000402e+00 0.000000000000000000e+00 0.000000000000000000e+00 -3.766746320999999842e+00 6.545463245999999735e+00 0.000000000000000000e+00 2.911207359999999911e-01 -4.650950850000000192e-01 2.007650269299999835e+01
8.112782335000000344e+00 0.000000000000000000e+00 0.000000000000000000e+00 -3.921665079999999914e+00 6.814665086999999843e+00 0.000000000000000000e+00 3.030939500000000009e-01 -4.842235180000000194e-01 2.090220918300000008e+01
7.836537353999999844e+00 0.000000000000000000e+00 0.000000000000000000e+00 -3.788130091999999838e+00 6.582621758000000156e+00 0.000000000000000000e+00 2.927734240000000043e-01 -4.677354240000000107e-01 2.019047674300000139e+01
7.804258443000000156e+00 0.000000000000000000e+00 0.000000000000000000e+00 -3.772526680999999993e+00 6.555507759000000156e+00 0.000000000000000000e+00 2.915674830000000162e-01 -4.658088089999999903e-01 2.010731161800000066e+01
7.662263471000000159e+00 0.000000000000000000e+00 0.000000000000000000e+00 -3.954136211999999873e+00 6.761364385000000254e+00 0.000000000000000000e+00 -3.631722350000000099e-01 -4.372694129999999957e-01 2.068368677200000150e+01
8.044114755000000727e+00 0.000000000000000000e+00 0.000000000000000000e+00 -3.888471628000000013e+00 6.756984929999999778e+00 0.000000000000000000e+00 3.005285260000000180e-01 -4.801249910000000010e-01 2.072529033200000015e+01
7.656988565999999885e+00 0.000000000000000000e+00 0.000000000000000000e+00 -3.951414079000000079e+00 6.756709683000000410e+00 0.000000000000000000e+00 -3.629222180000000186e-01 -4.369683850000000147e-01 2.066944757499999952e+01
7.971068808000000061e+00 0.000000000000000000e+00 0.000000000000000000e+00 -3.853161703000000049e+00 6.695626983000000365e+00 0.000000000000000000e+00 2.977995259999999811e-01 -4.757651339999999784e-01 2.053709082099999961e+01
8.072807352999999964e+00 0.000000000000000000e+00 0.000000000000000000e+00 -3.902341439999999828e+00 6.781086457999999872e+00 0.000000000000000000e+00 3.016004829999999748e-01 -4.818375509999999751e-01 2.079921548700000145e+01
7.857831291000000107e+00 0.000000000000000000e+00 0.000000000000000000e+00 -3.798423440000000095e+00 6.600508475999999902e+00 0.000000000000000000e+00 2.935689670000000140e-01 -4.690063839999999984e-01 2.024533958800000022e+01
7.608285158000000159e+00 0.000000000000000000e+00 0.000000000000000000e+00 -3.888470209999999927e+00 6.489720009000000012e+00 0.000000000000000000e+00 2.850620900000000110e-02 1.612247029999999970e-01 2.080173291599999885e+01
7.986388162999999984e+00 0.000000000000000000e+00 0.000000000000000000e+00 -3.860566976999999955e+00 6.708495104999999903e+00 0.000000000000000000e+00 2.983718579999999898e-01 -4.766794930000000097e-01 2.057656043200000084e+01
7.697359682000000092e+00 0.000000000000000000e+00 0.000000000000000000e+00 -3.972247725999999979e+00 6.792334120999999669e+00 0.000000000000000000e+00 -3.648357079999999808e-01 -4.392722809999999867e-01 2.077842627600000114e+01
8.169865306000000160e+00 0.000000000000000000e+00 0.000000000000000000e+00 -3.949258609000000142e+00 6.862614276000000402e+00 0.000000000000000000e+00 3.052265730000000010e-01 -4.876306000000000251e-01 2.104928082200000006e+01
8.089819968000000472e+00 0.000000000000000000e+00 0.000000000000000000e+00 -3.910565225000000034e+00 6.795376903000000191e+00 0.000000000000000000e+00 3.022360749999999929e-01 -4.828529739999999904e-01 2.084304770399999995e+01
7.321394503999999692e+00 0.000000000000000000e+00 0.000000000000000000e+00 -3.639046394999999823e+00 6.372990674999999605e+00 0.000000000000000000e+00 4.721000000000000200e-06 -3.577999999999999878e-06 1.995522401099999854e+01
8.073078570999999926e+00 0.000000000000000000e+00 0.000000000000000000e+00 -3.902472545000000181e+00 6.781314279000000056e+00 0.000000000000000000e+00 3.016106159999999980e-01 -4.818537390000000031e-01 2.079991426899999851e+01
7.815421167000000224e+00 0.000000000000000000e+00 0.000000000000000000e+00 -3.777922667999999984e+00 6.564884347999999648e+00 0.000000000000000000e+00 2.919845220000000241e-01 -4.664750730000000178e-01 2.013607186000000127e+01
8.278902869999999581e+00 0.000000000000000000e+00 0.000000000000000000e+00 -4.001966643000000268e+00 6.954204861000000015e+00 0.000000000000000000e+00 3.093002220000000135e-01 -4.941386700000000021e-01 2.133021107200000088e+01
7.733182230999999796e+00 0.000000000000000000e+00 0.000000000000000000e+00 -3.738168911999999899e+00 6.495804372000000271e+00 0.000000000000000000e+00 2.889120720000000198e-01 -4.615665190000000084e-01 1.992418703799999946e+01
8.319036987000000494e+00 0.000000000000000000e+00 0.000000000000000000e+00 -4.021367209000000109e+00 6.987917162999999654e+00 0.000000000000000000e+00 3.107996339999999913e-01 -4.965341340000000159e-01 2.143361477399999870e+01
8.053469863000000117e+00 0.000000000000000000e+00 0.000000000000000000e+00 -3.892993825000000019e+00 6.764843137999999811e+00 0.000000000000000000e+00 3.008780340000000164e-01 -4.806833640000000019e-01 2.074939333600000069e+01
7.983073994999999812e+00 0.000000000000000000e+00 0.000000000000000000e+00 -3.858964931000000043e+00 6.705711233999999799e+00 0.000000000000000000e+00 2.982480399999999920e-01 -4.764816820000000175e-01 2.056802163200000066e+01
7.988909776999999934e+00 0.000000000000000000e+00 0.000000000000000000e+00 -3.861785908999999961e+00 6.710613238999999730e+00 0.000000000000000000e+00 2.984660659999999743e-01 -4.768299990000000044e-01 2.058305725700000011e+01
8.000629697000000817e+00 0.000000000000000000e+00 0.000000000000000000e+00 -3.867451239999999846e+00 6.720457867999999557e+00 0.000000000000000000e+00 2.989039219999999886e-01 -4.775295199999999851e-01 2.061325308800000045e+01
7.677397181999999987e+00 0.000000000000000000e+00 0.000000000000000000e+00 -3.961946012999999933e+00 6.774718733000000270e+00 0.000000000000000000e+00 -3.638895349999999862e-01 -4.381330629999999893e-01 2.072453905300000088e+01
7.639920841000000351e+00 0.000000000000000000e+00 0.000000000000000000e+00 -3.904638691000000161e+00 6.516704633999999885e+00 0.000000000000000000e+00 2.862473899999999974e-02 1.618950839999999947e-01 2.088822770599999856e+01
8.143212238000000269e+00 0.000000000000000000e+00 0.000000000000000000e+00 -3.936374693999999952e+00 6.840225936000000395e+00 0.000000000000000000e+00 3.042308129999999888e-01 -4.860397719999999810e-01 2.098061042499999829e+01
7.620011028999999603e+00 0.000000000000000000e+00 0.000000000000000000e+00 -3.894463110999999866e+00 6.499721949000000443e+00 0.000000000000000000e+00 2.855014200000000057e-02 1.614731819999999929e-01 2.083379249600000094e+01
7.822799962999999579e+00 0.000000000000000000e+00 0.000000000000000000e+00 -3.781489528999999905e+00 6.571082471000000425e+00 0.000000000000000000e+00 2.922601950000000004e-01 -4.669154870000000179e-01 2.015508298900000028e+01
8.058618566999999899e+00 0.000000000000000000e+00 0.000000000000000000e+00 -3.895482674999999784e+00 6.769168002999999878e+00 0.000000000000000000e+00 3.010703889999999938e-01 -4.809906720000000080e-01 2.076265873399999862e+01
8.158696857000000691e+00 0.000000000000000000e+00 0.000000000000000000e+00 -3.943859854999999914e+00 6.853232878000000028e+00 0.000000000000000000e+00 3.048093190000000230e-01 -4.869639940000000111e-01 2.102050582900000109e+01
7.938980014000000196e+00 0.000000000000000000e+00 0.000000000000000000e+00 -3.837650192999999987e+00 6.668672682000000407e+00 0.000000000000000000e+00 2.966006869999999740e-01 -4.738498669999999802e-01 2.045441552699999832e+01
8.069769734999999500e+00 0.000000000000000000e+00 0.000000000000000000e+00 -3.900873075999999884e+00 6.778534886000000093e+00 0.000000000000000000e+00 3.014869980000000060e-01 -4.816562460000000101e-01 2.079138920600000162e+01
8.016348311999999865e+00 0.000000000000000000e+00 0.000000000000000000e+00 -3.875049514000000084e+00 6.733661364999999677e+00 0.000000000000000000e+00 2.994911710000000005e-01 -4.784677090000000188e-01 2.065375137399999872e+01
8.056004470999999612e+00 0.000000000000000000e+00 0.000000000000000000e+00 -3.894219038000000133e+00 6.766972186000000278e+00 0.000000000000000000e+00 3.009727269999999955e-01 -4.808346459999999767e-01 2.075592363599999857e+01
8.040937918999999212e+00 0.000000000000000000e+00 0.000000000000000000e+00 -3.886935966999999881e+00 6.754316415999999990e+00 0.000000000000000000e+00 3.004098390000000118e-01 -4.799353760000000246e-01 2.071710536100000155e+01
7.782058203000000063e+00 0.000000000000000000e+00 0.000000000000000000e+00 -3.761795231999999878e+00 6.536859755000000050e+00 0.000000000000000000e+00 2.907380800000000098e-01 -4.644837540000000264e-01 2.005011372399999914e+01
7.748327546999999704e+00 0.000000000000000000e+00 0.000000000000000000e+00 -3.745490058000000122e+00 6.508526304000000096e+00 0.000000000000000000e+00 2.894779009999999819e-01 -4.624704900000000118e-01 1.996320824700000074e+01
8.120980129999999519e+00 0.000000000000000000e+00 0.000000000000000000e+00 -3.925627840000000202e+00 6.821551162999999640e+00 0.000000000000000000e+00 3.034002199999999982e-01 -4.847128150000000191e-01 2.092333042399999954e+01
7.677896792000000303e+00 0.000000000000000000e+00 0.000000000000000000e+00 -3.962203838000000200e+00 6.775159601000000364e+00 0.000000000000000000e+00 -3.639132159999999838e-01 -4.381615739999999981e-01 2.072588771099999860e+01
7.823579739000000366e+00 0.000000000000000000e+00 0.000000000000000000e+00 -3.781866466999999954e+00 6.571737476000000022e+00 0.000000000000000000e+00 2.922893269999999877e-01 -4.669620290000000007e-01 2.015709204399999877e+01
8.197574961999999132e+00 0.000000000000000000e+00 0.000000000000000000e+00 -3.962653272999999921e+00 6.885890140999999964e+00 0.000000000000000000e+00 3.062618069999999970e-01 -4.892844920000000153e-01 2.112067347300000009e+01
7.674215241999999826e+00 0.000000000000000000e+00 0.000000000000000000e+00 -3.910866012000000058e+00 6.711395869000000403e+00 0.000000000000000000e+00 1.402879330000000035e-01 8.120058500000000568e-02 2.067653622699999971e+01
7.992765212000000119e+00 0.000000000000000000e+00 0.000000000000000000e+00 -3.863649600000000017e+00 6.713851769999999775e+00 0.000000000000000000e+00 2.986101050000000146e-01 -4.770601159999999785e-01 2.059299060500000067e+01
8.315318503000000305e+00 0.000000000000000000e+00 0.000000000000000000e+00 -4.019569717999999625e+00 6.984793669000000094e+00 0.000000000000000000e+00 3.106607120000000055e-01 -4.963121910000000137e-01 2.142403426999999994e+01
7.779381629999999603e+00 0.000000000000000000e+00 0.000000000000000000e+00 -3.760501394999999913e+00 6.534611456999999568e+00 0.000000000000000000e+00 2.906380840000000187e-01 -4.643239989999999873e-01 2.004321765599999949e+01
8.045447898999999126e+00 0.000000000000000000e+00 0.000000000000000000e+00 -3.889116061999999818e+00 6.758104760000000155e+00 0.000000000000000000e+00 3.005783329999999753e-01 -4.802045609999999742e-01 2.072872511799999984e+01
7.895399090999999814e+00 0.000000000000000000e+00 0.000000000000000000e+00 -3.816583464999999897e+00 6.632065093999999661e+00 0.000000000000000000e+00 2.949725020000000253e-01 -4.712486739999999785e-01 2.034213128900000100e+01
7.529849632000000348e+00 0.000000000000000000e+00 0.000000000000000000e+00 -3.837295679999999987e+00 6.585142600000000179e+00 0.000000000000000000e+00 1.376488680000000075e-01 7.967305700000000546e-02 2.028757388000000006e+01
7.335230253999999839e+00 0.000000000000000000e+00 0.000000000000000000e+00 -3.645923354999999866e+00 6.385034160000000014e+00 0.000000000000000000e+00 4.729999999999999606e-06 -3.584999999999999981e-06 1.999293478999999962e+01
7.754053591999999995e+00 0.000000000000000000e+00 0.000000000000000000e+00 -3.748257989999999928e+00 6.513336130999999973e+00 0.000000000000000000e+00 2.896918270000000128e-01 -4.628122570000000047e-01 1.997796113700000120e+01
8.072040727999999277e+00 0.000000000000000000e+00 0.000000000000000000e+00 -3.901970858999999958e+00 6.780442500000000372e+00 0.000000000000000000e+00 3.015718419999999789e-01 -4.817917939999999954e-01 2.079724031399999973e+01
8.268942940000000519e+00 0.000000000000000000e+00 0.000000000000000000e+00 -3.997152080000000218e+00 6.945838608999999941e+00 0.000000000000000000e+00 3.089281179999999738e-01 -4.935441959999999906e-01 2.130454977400000161e+01
7.958595848999999944e+00 0.000000000000000000e+00 0.000000000000000000e+00 -3.847132358000000085e+00 6.685149809000000332e+00 0.000000000000000000e+00 2.973335360000000094e-01 -4.750206670000000075e-01 2.050495481999999825e+01
7.992494061000000372e+00 0.000000000000000000e+00 0.000000000000000000e+00 -3.863518528000000174e+00 6.713624005999999866e+00 0.000000000000000000e+00 2.985999750000000175e-01 -4.770439320000000039e-01 2.059229199800000032e+01
7.712559855000000297e+00 0.000000000000000000e+00 0.000000000000000000e+00 -3.980091825000000139e+00 6.805747116000000041e+00 0.000000000000000000e+00 -3.655561589999999916e-01 -4.401397229999999827e-01 2.081945796400000148e+01
7.685520824000000140e+00 0.000000000000000000e+00 0.000000000000000000e+00 -3.927944097000000134e+00 6.555600537000000116e+00 0.000000000000000000e+00 2.879558999999999938e-02 1.628613790000000006e-01 2.101290214400000167e+01
8.101279962999999640e+00 0.000000000000000000e+00 0.000000000000000000e+00 -3.916104911000000133e+00 6.805003196999999560e+00 0.000000000000000000e+00 3.026642210000000111e-01 -4.835369809999999768e-01 2.087257385399999876e+01
7.958211275000000029e+00 0.000000000000000000e+00 0.000000000000000000e+00 -3.846946457000000041e+00 6.684826769999999918e+00 0.000000000000000000e+00 2.973191680000000225e-01 -4.749977129999999881e-01 2.050396398199999837e+01
