6.743400000000000505e-01 2.418270000000000142e+00 1.879803000000000068e+01 6.096930000000000405e+00 1.118700000000000028e+00 6.559919999999999973e+00 -1.564440000000000053e+00 3.794750000000000068e+00 9.372870000000000701e+00 3.474740000000000162e+00 5.305800000000000516e-01 1.756272999999999840e+01 4.695020000000000415e+00 3.691069999999999851e+00 1.725732999999999961e+01 2.555280000000000218e+00 1.156100000000000044e-01 5.114010000000000389e+00 4.167629999999999946e+00 4.740549999999999820e+00 1.258882999999999974e+01 2.442660000000000053e+00 5.425150000000000361e+00 9.088050000000000850e+00 -5.036000000000000199e-02 5.309350000000000236e+00 1.278363000000000049e+01 6.763900000000000468e-01 3.607839999999999936e+00 1.566473000000000049e+01 -4.389899999999999913e-01 9.778599999999999515e-01 2.489730000000000221e+00 3.785820000000000185e+00 3.478600000000000136e+00 5.529130000000000322e+00 5.884009999999999962e+00 -3.368999999999999773e-02 1.183313000000000059e+01 3.885269999999999779e+00 3.294779999999999820e+00 1.017500000000000071e+01 5.219660000000000188e+00 1.546929999999999916e+00 1.618622999999999834e+01 -1.680390000000000050e+00 5.041409999999999947e+00 1.450683000000000078e+01 -1.652600000000000069e+00 4.983620000000000161e+00 6.822980000000000267e+00 3.811679999999999957e+00 1.605850000000000000e+00 7.480749999999999567e+00 3.315809999999999924e+00 3.004890000000000061e+00 1.942633000000000010e+01 1.731349999999999945e+00 4.917080000000000339e+00 6.626999999999999780e+00 4.437000000000000277e+00 9.612100000000000088e-01 3.904770000000000074e+00 2.430400000000000060e-01 2.874699999999999811e+00 1.304883000000000060e+01 6.352940000000000254e+00 2.239419999999999966e+00 3.545599999999999863e-01 2.571419999999999817e+00 -1.421699999999999908e-01 1.021592000000000056e+01 3.203739999999999810e+00 5.166629999999999612e+00 1.570813000000000059e+01 1.193920000000000092e+00 9.536700000000000177e-01 1.661493000000000109e+01 -2.832840000000000025e+00 4.963250000000000384e+00 3.511519999999999975e+00 -7.229299999999999615e-01 4.720760000000000289e+00 1.774542999999999893e+01 -3.166000000000000064e-02 2.072750000000000092e+00 4.747790000000000177e+00 -5.345499999999999696e-01 1.471770000000000023e+00 8.728989999999999583e+00
3.204849999999999977e+00 1.137469999999999981e+00 1.819877999999999929e+01 2.620870000000000033e+00 3.891739999999999977e+00 5.861729999999999663e+00 2.832580000000000098e+00 1.212390000000000079e+00 1.088147999999999982e+01 -2.380469999999999864e+00 4.474619999999999820e+00 1.920177999999999940e+01 -6.710500000000000353e-01 1.363979999999999970e+00 1.897607999999999961e+01 5.351930000000000298e+00 3.699230000000000018e+00 3.694510000000000183e+00 3.552210000000000090e+00 6.547659999999999592e+00 1.251117999999999952e+01 -1.773689999999999989e+00 3.243949999999999889e+00 1.130747999999999998e+01 6.858199999999999852e-01 3.505149999999999988e+00 1.320857999999999954e+01 1.949910000000000032e+00 4.838269999999999627e+00 1.878768000000000171e+01 1.322249999999999925e+00 1.415769999999999973e+00 3.167489999999999917e+00 -1.038470000000000004e+00 6.235590000000000188e+00 5.905730000000000146e+00 -1.653129999999999988e+00 2.965079999999999938e+00 1.368628000000000000e+01 -7.201000000000000456e-02 1.475740000000000052e+00 1.006455000000000055e+01 3.771339999999999915e+00 3.455389999999999961e+00 1.717228000000000065e+01 1.975030000000000063e+00 8.514000000000000457e-01 1.356057999999999986e+01 5.027549999999999741e+00 3.943960000000000132e+00 6.296840000000000437e+00 1.445840000000000014e+00 5.942549999999999777e+00 6.505080000000000418e+00 3.584220000000000184e+00 5.798460000000000392e+00 2.069727999999999923e+01 1.384379999999999944e+00 1.701189999999999980e+00 6.237359999999999793e+00 -7.109999999999999654e-01 2.320409999999999862e+00 2.270980000000000221e+00 1.726669999999999927e+00 5.865090000000000359e+00 1.431537999999999933e+01 4.577130000000000365e+00 1.899899999999999922e+00 2.028447999999999851e+01 3.665680000000000049e+00 3.741400000000000059e+00 1.042759000000000036e+01 7.950800000000000090e-01 5.886899999999999800e+00 1.669117999999999924e+01 1.079839999999999911e+00 1.718399999999999928e-01 1.724248000000000047e+01 -7.417799999999999949e-01 5.890769999999999840e+00 3.096369999999999845e+00 4.440999999999999809e-02 3.827280000000000015e+00 1.993778000000000006e+01 2.954759999999999831e+00 3.975620000000000154e+00 2.995699999999999807e+00 4.139300000000000201e-01 5.667379999999999640e+00 1.077627999999999986e+01
3.098660000000000192e+00 2.810169999999999835e+00 6.819600000000000106e-01 3.083380000000000010e+00 6.256520000000000081e+00 6.600749999999999673e+00 3.918429999999999858e+00 2.512640000000000207e+00 1.019252000000000002e+01 -4.022700000000000164e-01 5.619959999999999845e+00 6.825700000000000101e-01 -1.409850000000000048e+00 3.017749999999999932e+00 1.781877000000000066e+01 6.767030000000000101e+00 9.675999999999999879e-02 8.618599999999999595e-01 1.733249999999999957e+00 2.757690000000000197e+00 1.566957000000000022e+01 3.757199999999999984e-01 5.413459999999999717e+00 9.134759999999999991e+00 -2.240330000000000155e+00 3.335379999999999789e+00 1.422267000000000081e+01 6.420630000000000059e+00 1.854000000000000092e-02 1.565526999999999980e+01 5.722269999999999968e+00 2.997809999999999864e+00 3.762570000000000192e+00 1.800799999999999956e+00 2.443210000000000104e+00 6.260030000000000427e+00 -3.514399999999999746e-01 1.582019999999999982e+00 1.371236999999999995e+01 1.807220000000000049e+00 1.845909999999999940e+00 8.909819999999999851e+00 2.945300000000000140e-01 1.325939999999999896e+00 1.752246999999999844e+01 3.942320000000000046e+00 1.463880000000000070e+00 1.609447000000000116e+01 4.424999999999999767e-02 1.280399999999999983e+00 4.757340000000000124e+00 4.400529999999999831e+00 3.462720000000000020e+00 5.943279999999999674e+00 -2.716079999999999828e+00 3.876700000000000035e+00 1.978556999999999988e+01 7.360299999999999621e-01 4.932190000000000296e+00 6.347319999999999851e+00 3.350200000000000067e+00 4.419520000000000337e+00 2.729880000000000084e+00 3.429460000000000175e+00 3.457460000000000200e+00 1.227247000000000021e+01 1.349020000000000108e+00 1.008300000000000030e-01 2.056433000000000177e+01 -7.883900000000000352e-01 3.189639999999999809e+00 1.032817999999999969e+01 6.990800000000000347e-01 5.015539999999999665e+00 1.573517000000000010e+01 -2.701869999999999994e+00 5.062649999999999650e+00 1.636757000000000062e+01 4.552559999999999718e+00 8.276599999999999513e-01 2.193979999999999819e+00 1.093069999999999986e+00 4.961350000000000371e+00 1.956966999999999857e+01 -7.496999999999999498e-02 3.899550000000000072e+00 2.343119999999999870e+00 5.962030000000000385e+00 7.544399999999999995e-01 9.403859999999999886e+00
1.233330000000000037e+00 5.487519999999999953e+00 1.913222999999999985e+01 5.606379999999999697e+00 1.791639999999999899e+00 5.128519999999999968e+00 4.911760000000000126e+00 3.124130000000000074e+00 1.018729000000000084e+01 1.669529999999999959e+00 8.841499999999999915e-01 1.922343000000000046e+01 4.361439999999999984e+00 5.318260000000000431e+00 1.633412999999999826e+01 4.501499999999999946e-01 2.993380000000000152e+00 2.037440000000000140e+00 5.788799999999999502e-01 5.978559999999999874e+00 1.487493000000000087e+01 1.468739999999999934e+00 3.190580000000000194e+00 1.230852999999999930e+01 3.811700000000000088e-01 5.798840000000000217e+00 1.038053000000000026e+01 1.906639999999999890e+00 2.439659999999999940e+00 1.584293000000000085e+01 3.314200000000000035e+00 3.348400000000000265e-01 2.134949999999999903e+00 3.602000000000000340e-02 3.946569999999999911e+00 7.207760000000000389e+00 2.191570000000000018e+00 5.688250000000000028e+00 1.219542999999999999e+01 3.763020000000000032e+00 1.593469999999999942e+00 1.164072999999999958e+01 4.233030000000000292e+00 3.129049999999999887e+00 1.510143000000000058e+01 5.920770000000000088e+00 1.147100000000000064e-01 1.679282999999999859e+01 6.743999999999999995e-01 2.185439999999999827e+00 4.880040000000000155e+00 4.957029999999999603e+00 3.706690000000000040e+00 7.385369999999999990e+00 1.880500000000000060e+00 5.249719999999999942e+00 1.358500000000000041e+00 1.398390000000000022e+00 6.070109999999999673e+00 7.824760000000000382e+00 3.137649999999999828e+00 1.727430000000000021e+00 4.289900000000000269e+00 -7.929999999999999549e-02 3.339150000000000063e+00 1.442272999999999961e+01 4.344560000000000421e+00 1.449410000000000087e+00 2.014213000000000164e+01 -2.130790000000000184e+00 5.625219999999999665e+00 1.109623000000000026e+01 4.709600000000000009e+00 4.796310000000000073e+00 1.891243000000000052e+01 2.099639999999999951e+00 2.862000000000000099e-01 1.445053000000000054e+01 7.415399999999999769e-01 7.562400000000000233e-01 1.122030000000000083e+00 5.150000000000000133e-01 2.911880000000000024e+00 1.816233000000000075e+01 -2.012509999999999799e+00 4.315959999999999575e+00 2.104010000000000158e+00 2.194399999999999962e-01 2.698570000000000135e+00 9.737379999999999924e+00
4.927000000000000268e-01 2.612789999999999946e+00 2.047994999999999877e+01 -3.232800000000000118e-01 1.053819999999999979e+00 6.445920000000000094e+00 5.568170000000000286e+00 4.050720000000000098e+00 8.959250000000000824e+00 1.201489999999999947e+00 6.132080000000000197e+00 1.530494999999999983e+01 3.598980000000000068e+00 2.975709999999999855e+00 2.097420000000000062e+00 3.956789999999999807e+00 6.589699999999999447e-01 6.053180000000000227e+00 2.598440000000000083e+00 4.373990000000000045e+00 1.217864999999999931e+01 5.387999999999999456e-01 6.413699999999999957e-01 1.107205000000000084e+01 -1.306910000000000016e+00 4.702960000000000029e+00 1.264744999999999919e+01 -1.064589999999999925e+00 2.268310000000000048e+00 1.814645000000000152e+01 7.091859999999999609e+00 5.223400000000000265e-01 3.020770000000000177e+00 4.945039999999999658e+00 3.680419999999999803e+00 4.868059999999999832e+00 2.559379999999999988e+00 5.885640000000000427e+00 1.011669999999999980e+01 4.864819999999999922e+00 3.026920000000000055e+00 1.163085000000000058e+01 5.055349999999999788e+00 1.237219999999999986e+00 1.685494999999999877e+01 2.862159999999999815e+00 -9.543999999999999706e-02 1.436265000000000036e+01 -2.335700000000000109e+00 6.116660000000000430e+00 6.639140000000000263e+00 3.833289999999999864e+00 3.041430000000000078e+00 6.974510000000000431e+00 1.993000000000000105e+00 4.837209999999999788e+00 6.463700000000000001e-01 2.235419999999999963e+00 5.956909999999999705e+00 5.531030000000000335e+00 3.873590000000000089e+00 5.976700000000000346e-01 3.122030000000000083e+00 7.096599999999999575e-01 2.960570000000000146e+00 1.322085000000000043e+01 6.933919999999999639e+00 7.422499999999999654e-01 1.040200000000000014e-01 -9.085999999999999632e-01 6.009769999999999612e+00 1.044946999999999981e+01 3.639759999999999884e+00 6.140259999999999607e+00 1.374784999999999968e+01 1.298149999999999915e+00 2.076869999999999994e+00 1.782104999999999961e+01 4.840659999999999741e+00 5.148609999999999687e+00 2.766290000000000138e+00 -1.229749999999999899e+00 4.560539999999999594e+00 1.926644999999999897e+01 -5.698299999999999477e-01 2.724610000000000198e+00 4.555799999999999628e+00 -4.138600000000000056e-01 2.403490000000000126e+00 8.841519999999999158e+00
2.000000000000000111e-01 3.031989999999999963e+00 2.040533999999999892e+01 3.096200000000000063e-01 1.169070000000000054e+00 6.669439999999999813e+00 4.860560000000000436e+00 3.624369999999999870e+00 9.304880000000000706e+00 5.006389999999999674e+00 2.430299999999999960e-01 1.452683999999999997e+01 4.328929999999999723e+00 3.252810000000000201e+00 1.086200000000000054e+00 4.455930000000000391e+00 2.891699999999999826e-01 5.842920000000000336e+00 3.373369999999999980e+00 4.218849999999999767e+00 1.229973999999999990e+01 6.996419999999999639e+00 5.823500000000000343e-01 1.067812999999999946e+01 -6.100100000000000522e-01 4.732949999999999768e+00 1.195603999999999978e+01 6.483380000000000365e+00 2.567289999999999850e+00 1.765164000000000044e+01 6.722830000000000084e+00 4.282500000000000195e-01 3.471410000000000107e+00 -2.274199999999999999e+00 3.988510000000000222e+00 5.016280000000000072e+00 2.195100000000000051e+00 4.945459999999999745e+00 1.005134999999999934e+01 5.284790000000000099e+00 2.340549999999999908e+00 1.230414000000000030e+01 4.525280000000000413e+00 1.419410000000000061e+00 1.687404000000000082e+01 -1.225079999999999947e+00 5.681680000000000064e+00 1.424784000000000006e+01 -1.658199999999999896e+00 6.132130000000000081e+00 7.031649999999999956e+00 4.276239999999999597e+00 3.103619999999999823e+00 6.854499999999999815e+00 1.924579999999999957e+00 5.186009999999999565e+00 7.791599999999999637e-01 2.768299999999999983e+00 5.698739999999999917e+00 6.013550000000000395e+00 3.912809999999999899e+00 9.188600000000000101e-01 3.239459999999999784e+00 1.080619999999999914e+00 2.984389999999999876e+00 1.282113999999999976e+01 6.633709999999999773e+00 8.172800000000000065e-01 9.523899999999999588e-01 -2.099979999999999958e+00 5.724370000000000402e+00 1.020833999999999975e+01 7.280300000000000438e+00 9.419999999999999554e-03 1.342123999999999917e+01 4.757399999999999962e-01 1.374649999999999928e+00 1.816463999999999857e+01 -2.760899999999999910e+00 5.366299999999999848e+00 3.062450000000000117e+00 -2.096340000000000092e+00 4.158280000000000420e+00 1.938813999999999993e+01 -8.944000000000000561e-02 2.842769999999999797e+00 4.560170000000000279e+00 -4.308299999999999907e-01 2.474639999999999951e+00 8.817780000000000840e+00
5.469500000000000473e-01 3.774230000000000196e+00 1.018000000000000016e-01 4.081290000000000084e+00 2.542100000000000026e+00 5.794690000000000119e+00 -2.243869999999999809e+00 4.598930000000000184e+00 8.625880000000000436e+00 -2.217410000000000103e+00 5.051969999999999850e+00 1.995536999999999850e+01 5.367960000000000065e+00 2.962959999999999816e+00 1.401417000000000002e+01 5.538999999999999480e-01 2.964529999999999887e+00 4.028419999999999668e+00 8.865899999999999892e-01 5.629920000000000258e+00 1.406677000000000000e+01 1.703829999999999956e+00 4.172690000000000232e+00 1.067676999999999943e+01 4.611860000000000070e+00 1.565690000000000026e+00 1.001497999999999955e+01 2.424350000000000005e+00 7.862999999999999989e-01 1.681306999999999974e+01 4.389759999999999884e+00 2.612309999999999910e+00 1.555229999999999890e+00 -2.158819999999999961e+00 6.023710000000000342e+00 4.209220000000000184e+00 5.306879999999999598e+00 1.064729999999999954e+00 1.241966999999999999e+01 4.135889999999999844e+00 5.397859999999999658e+00 1.089476999999999940e+01 5.040329999999999977e+00 6.890600000000000058e-01 1.602767000000000053e+01 1.560769999999999991e+00 3.127619999999999845e+00 1.738567000000000107e+01 3.068100000000000271e-01 5.567969999999999864e+00 4.276980000000000004e+00 3.676849999999999952e+00 5.063920000000000421e+00 6.366819999999999702e+00 1.658100000000000129e-01 6.570009999999999906e+00 1.972887000000000057e+01 5.737149999999999750e+00 1.996140000000000025e+00 7.825919999999999987e+00 1.657270000000000021e+00 1.458520000000000039e+00 5.876559999999999562e+00 8.885100000000000220e-01 3.206910000000000149e+00 1.300777000000000072e+01 1.765789999999999971e+00 1.988019999999999898e+00 1.783339999999999925e+00 2.165719999999999867e+00 1.752839999999999954e+00 9.722789999999999822e+00 5.970939999999999692e+00 2.470349999999999824e+00 1.902447000000000088e+01 -1.649199999999999999e+00 5.415009999999999657e+00 1.478607000000000049e+01 5.518550000000000288e+00 1.802319999999999922e+00 3.829889999999999795e+00 -3.255679999999999907e+00 6.482630000000000337e+00 1.826186999999999827e+01 3.866260000000000030e+00 5.297159999999999869e+00 2.261779999999999902e+00 3.560599999999999876e-01 5.346309999999999896e+00 8.825720000000000454e+00
7.839000000000000135e-02 2.738039999999999807e+00 2.022766000000000020e+01 2.661299999999999777e-01 9.506700000000000150e-01 6.908039999999999736e+00 5.059549999999999770e+00 3.349270000000000191e+00 9.531969999999999388e+00 4.955930000000000391e+00 9.348100000000000298e-01 1.415185999999999922e+01 4.514920000000000044e+00 3.539280000000000204e+00 1.176209999999999978e+00 4.147969999999999935e+00 7.159400000000000208e-01 5.903410000000000046e+00 2.608499999999999819e+00 4.052240000000000286e+00 1.241666000000000025e+01 6.894639999999999880e+00 1.877000000000000057e-01 1.071735999999999933e+01 -1.567999999999999949e-01 4.752570000000000405e+00 1.191196000000000055e+01 6.209570000000000256e+00 2.485279999999999934e+00 1.755336000000000141e+01 7.067420000000000258e+00 4.981999999999999762e-01 3.394789999999999974e+00 -1.671280000000000099e+00 4.508090000000000153e+00 5.194919999999999760e+00 1.870370000000000088e+00 4.649639999999999773e+00 9.680070000000000618e+00 5.150059999999999860e+00 2.492300000000000182e+00 1.199315999999999960e+01 4.091730000000000089e+00 1.517719999999999958e+00 1.647825999999999880e+01 -9.825199999999999489e-01 5.594579999999999664e+00 1.414865999999999957e+01 -1.582969999999999988e+00 5.976379999999999804e+00 7.438240000000000407e+00 4.188430000000000319e+00 3.235180000000000167e+00 6.780680000000000263e+00 1.863169999999999993e+00 4.477210000000000356e+00 4.117500000000000049e-01 2.351129999999999942e+00 6.008670000000000400e+00 6.280999999999999694e+00 4.560150000000000148e+00 9.057600000000000096e-01 3.208000000000000185e+00 1.082719999999999905e+00 2.228460000000000107e+00 1.287955999999999968e+01 6.232829999999999870e+00 1.820019999999999971e+00 7.064000000000000279e-01 -2.124169999999999892e+00 5.675150000000000361e+00 1.052056999999999931e+01 3.404399999999999871e+00 6.342419999999999725e+00 1.329696000000000033e+01 6.523700000000000054e-01 1.481130000000000058e+00 1.801645999999999859e+01 -2.982850000000000001e+00 5.451430000000000220e+00 2.886319999999999997e+00 -2.102860000000000174e+00 4.508429999999999715e+00 1.946036000000000143e+01 6.457100000000000062e-01 2.361870000000000136e+00 4.796499999999999986e+00 -4.709999999999999742e-01 2.257010000000000183e+00 9.212939999999999685e+00
-2.895300000000000096e-01 3.047349999999999781e+00 2.009357999999999933e+01 5.116299999999999848e+00 6.476899999999999880e-01 7.251730000000000231e+00 5.740680000000000227e+00 3.690859999999999808e+00 8.588929999999999509e+00 1.466380000000000017e+00 5.372340000000000337e+00 1.542737999999999943e+01 3.739090000000000025e+00 5.061320000000000263e+00 1.318640000000000034e+00 2.471130000000000049e+00 3.380520000000000191e+00 5.093379999999999797e+00 2.886089999999999822e+00 3.760819999999999830e+00 1.219138000000000055e+01 7.602780000000000094e+00 2.242099999999999926e-01 1.058507999999999960e+01 -1.596610000000000085e+00 3.588410000000000100e+00 1.269637999999999955e+01 5.871389999999999887e+00 1.984720000000000040e+00 1.719437999999999889e+01 1.878090000000000037e+00 1.942739999999999911e+00 1.879580000000000028e+00 -9.525599999999999623e-01 5.033389999999999809e+00 4.224610000000000198e+00 1.578009999999999913e+00 5.617910000000000181e+00 1.077647999999999939e+01 4.501190000000000246e+00 2.302439999999999820e+00 1.105157999999999952e+01 1.891010000000000080e+00 6.113299999999999734e+00 1.764288000000000167e+01 -1.160050000000000026e+00 5.017730000000000246e+00 1.504518000000000022e+01 -1.043539999999999912e+00 5.670759999999999579e+00 7.021670000000000300e+00 3.265060000000000073e+00 2.880139999999999922e+00 7.549159999999999648e+00 1.486019999999999897e+00 4.383020000000000138e+00 1.039989999999999970e+00 1.620200000000000085e+00 5.852079999999999949e+00 4.846180000000000376e+00 4.631479999999999819e+00 3.815360000000000085e+00 3.435989999999999878e+00 7.145000000000000240e-01 2.199840000000000018e+00 1.224507999999999974e+01 -2.978600000000000136e-01 9.369100000000000206e-01 6.798699999999999743e-01 -1.857350000000000056e+00 5.696130000000000138e+00 1.042370000000000019e+01 3.522440000000000015e+00 4.066980000000000040e+00 1.462847999999999971e+01 4.366700000000000026e-01 2.296250000000000124e+00 1.771968000000000032e+01 -5.486999999999999655e-01 6.280359999999999943e+00 1.495740000000000069e+00 5.004789999999999850e+00 3.042920000000000069e+00 1.950158000000000058e+01 1.183329999999999993e+00 1.197270000000000056e+00 4.397649999999999615e+00 -7.109900000000000109e-01 1.590260000000000007e+00 8.366009999999999280e+00
9.334000000000000630e-02 2.767129999999999868e+00 2.020686999999999856e+01 2.640399999999999969e-01 9.655500000000000194e-01 6.862759999999999749e+00 5.044150000000000134e+00 3.298610000000000042e+00 9.533409999999999940e+00 4.951900000000000190e+00 8.482699999999999685e-01 1.417516999999999960e+01 4.567510000000000403e+00 3.460170000000000190e+00 1.097860000000000058e+00 4.115579999999999572e+00 7.014200000000000434e-01 5.863349999999999618e+00 2.696439999999999948e+00 4.096000000000000085e+00 1.239357000000000042e+01 6.855269999999999975e+00 3.034100000000000130e-01 1.067547000000000068e+01 -1.245499999999999940e-01 4.764980000000000437e+00 1.191117000000000026e+01 6.234469999999999956e+00 2.501230000000000064e+00 1.747097000000000122e+01 6.988489999999999647e+00 4.908899999999999930e-01 3.485850000000000115e+00 -1.684530000000000083e+00 4.468799999999999883e+00 5.239239999999999675e+00 1.894630000000000036e+00 4.639949999999999797e+00 9.602629999999999555e+00 5.144239999999999924e+00 2.547210000000000196e+00 1.197026999999999930e+01 4.085899999999999643e+00 1.448949999999999960e+00 1.649446999999999974e+01 -1.048079999999999901e+00 5.583929999999999616e+00 1.419917000000000051e+01 -1.571399999999999908e+00 5.926809999999999690e+00 7.422109999999999985e+00 4.174070000000000391e+00 3.045819999999999972e+00 6.713910000000000267e+00 1.745610000000000106e+00 4.561589999999999812e+00 4.019900000000000140e-01 2.454509999999999970e+00 6.008110000000000284e+00 6.193699999999999761e+00 4.501400000000000290e+00 9.049599999999999866e-01 3.286220000000000141e+00 1.112060000000000048e+00 2.261369999999999880e+00 1.284487000000000023e+01 6.289080000000000226e+00 1.698309999999999986e+00 6.890500000000000513e-01 -2.112729999999999997e+00 5.772569999999999979e+00 1.045575999999999972e+01 3.419099999999999806e+00 6.389330000000000176e+00 1.321437000000000062e+01 6.777499999999999636e-01 1.441480000000000095e+00 1.812367000000000061e+01 -2.975560000000000205e+00 5.523520000000000429e+00 2.843319999999999848e+00 -2.201420000000000154e+00 4.478749999999999787e+00 1.955187000000000097e+01 6.082400000000000029e-01 2.387230000000000185e+00 4.694659999999999833e+00 -5.278899999999999704e-01 2.251430000000000042e+00 9.184400000000000119e+00
4.178899999999999837e-01 2.956510000000000193e+00 2.065851999999999933e+01 1.233199999999999991e-01 1.123320000000000096e+00 6.659110000000000085e+00 4.898340000000000138e+00 3.876790000000000180e+00 9.219429999999999126e+00 1.184549999999999992e+00 6.379929999999999879e+00 1.484632000000000041e+01 3.728930000000000078e+00 3.028480000000000061e+00 1.914909999999999890e+00 4.238190000000000346e+00 4.118200000000000194e-01 5.866270000000000095e+00 3.217509999999999870e+00 4.351250000000000284e+00 1.246261999999999937e+01 -2.164300000000000113e-01 7.009900000000000020e-01 1.101032000000000011e+01 -1.122700000000000031e+00 4.407079999999999664e+00 1.254331999999999958e+01 -1.295909999999999895e+00 2.440679999999999961e+00 1.796112000000000108e+01 6.696019999999999861e+00 3.666499999999999759e-01 3.001269999999999882e+00 5.150769999999999627e+00 3.979509999999999881e+00 4.939339999999999620e+00 2.933800000000000185e+00 5.335230000000000139e+00 1.003458999999999968e+01 5.157230000000000203e+00 2.761150000000000215e+00 1.162951999999999941e+01 4.517999999999999794e+00 1.438530000000000086e+00 1.711232000000000042e+01 -1.189119999999999955e+00 6.295119999999999827e+00 1.443762000000000079e+01 -1.809660000000000046e+00 5.974000000000000199e+00 6.033579999999999721e+00 3.428319999999999812e+00 2.686409999999999965e+00 7.181619999999999671e+00 1.957840000000000025e+00 4.345850000000000435e+00 7.246299999999999963e-01 2.641799999999999926e+00 6.165659999999999918e+00 5.779609999999999914e+00 4.129870000000000374e+00 1.184900000000000064e+00 3.272440000000000015e+00 9.923899999999999944e-01 3.189490000000000158e+00 1.329922000000000004e+01 7.276379999999999626e+00 1.278869999999999951e+00 4.400899999999999812e-01 -1.815190000000000081e+00 6.360179999999999723e+00 1.023353999999999964e+01 7.628250000000000419e+00 -2.699699999999999878e-01 1.402752000000000088e+01 1.237980000000000080e+00 1.728050000000000086e+00 1.841651999999999845e+01 -2.977889999999999926e+00 5.260030000000000427e+00 2.515870000000000051e+00 -1.277800000000000047e+00 4.417519999999999669e+00 1.970932000000000173e+01 -6.418800000000000061e-01 2.505879999999999885e+00 4.325990000000000002e+00 -4.313899999999999957e-01 2.512309999999999821e+00 8.690839999999999677e+00
5.883599999999999941e-01 2.596550000000000136e+00 2.029777999999999949e+01 -4.673300000000000232e-01 1.046790000000000109e+00 6.413140000000000285e+00 5.608719999999999928e+00 4.066589999999999705e+00 8.935810000000000031e+00 1.207340000000000080e+00 6.070870000000000211e+00 1.527487999999999957e+01 3.522339999999999804e+00 2.932500000000000107e+00 2.054040000000000088e+00 3.874229999999999841e+00 6.760699999999999488e-01 6.000609999999999999e+00 2.511330000000000062e+00 4.335989999999999789e+00 1.201507999999999932e+01 5.618800000000000461e-01 6.310999999999999943e-01 1.100148000000000081e+01 -1.330840000000000023e+00 4.601359999999999673e+00 1.259667999999999921e+01 -1.086910000000000043e+00 2.229680000000000106e+00 1.793738000000000099e+01 6.983209999999999695e+00 5.613299999999999956e-01 3.071200000000000152e+00 4.920350000000000001e+00 3.630370000000000097e+00 4.907720000000000304e+00 2.539520000000000000e+00 5.952119999999999855e+00 1.008428999999999931e+01 4.834509999999999863e+00 3.108729999999999993e+00 1.160357999999999912e+01 5.025159999999999627e+00 1.203799999999999981e+00 1.670507999999999882e+01 2.850070000000000103e+00 -6.242999999999999938e-02 1.426097999999999999e+01 -2.303589999999999804e+00 6.083999999999999631e+00 6.787379999999999747e+00 3.947859999999999925e+00 2.998610000000000220e+00 6.822890000000000121e+00 1.877359999999999918e+00 4.723550000000000360e+00 6.258200000000000429e-01 2.128319999999999990e+00 5.931680000000000064e+00 5.528279999999999639e+00 3.788679999999999826e+00 6.363999999999999657e-01 3.055779999999999941e+00 6.490500000000000158e-01 2.947830000000000172e+00 1.297738000000000014e+01 6.853430000000000355e+00 7.797300000000000342e-01 4.904000000000000026e-02 -8.024200000000000221e-01 5.949069999999999858e+00 1.025990999999999964e+01 3.599909999999999943e+00 6.017159999999999620e+00 1.357977999999999952e+01 1.354579999999999895e+00 2.100080000000000169e+00 1.765957999999999828e+01 4.863809999999999967e+00 5.042410000000000281e+00 2.756829999999999892e+00 -1.213840000000000030e+00 4.456050000000000288e+00 1.913057999999999836e+01 -4.511700000000000155e-01 2.786849999999999827e+00 4.551239999999999952e+00 -3.032500000000000195e-01 2.300819999999999865e+00 8.757160000000000721e+00
2.239800000000000124e-01 3.036970000000000169e+00 2.058597999999999928e+01 3.252999999999999781e-01 1.203899999999999970e+00 6.648710000000000342e+00 4.901989999999999625e+00 3.739409999999999901e+00 9.385540000000000660e+00 5.076649999999999885e+00 2.176099999999999979e-01 1.475807999999999964e+01 4.274429999999999730e+00 3.253519999999999968e+00 1.203670000000000018e+00 4.600590000000000401e+00 3.039200000000000235e-01 5.866629999999999789e+00 3.433380000000000098e+00 4.297839999999999883e+00 1.244668000000000063e+01 7.157130000000000436e+00 7.086000000000000076e-01 1.077717999999999954e+01 -7.723400000000000265e-01 4.771709999999999674e+00 1.204188000000000081e+01 6.553720000000000212e+00 2.570800000000000196e+00 1.777787999999999968e+01 6.723390000000000200e+00 4.154900000000000260e-01 3.370270000000000099e+00 5.630390000000000228e+00 3.994069999999999787e+00 5.004870000000000374e+00 2.208959999999999813e+00 4.962760000000000282e+00 1.011534999999999940e+01 5.389079999999999870e+00 2.310839999999999783e+00 1.234787999999999997e+01 4.579130000000000145e+00 1.392830000000000013e+00 1.696638000000000090e+01 -1.350780000000000092e+00 5.714349999999999596e+00 1.433768000000000065e+01 -1.768669999999999964e+00 6.175130000000000230e+00 6.983600000000000030e+00 4.237700000000000244e+00 3.070870000000000211e+00 6.847419999999999618e+00 2.025119999999999809e+00 5.211000000000000298e+00 8.367400000000000393e-01 2.747219999999999995e+00 5.729779999999999873e+00 6.068679999999999630e+00 3.925530000000000186e+00 9.518100000000000449e-01 3.267290000000000028e+00 1.147869999999999946e+00 3.082539999999999836e+00 1.294627999999999979e+01 6.760959999999999859e+00 8.293700000000000516e-01 9.759200000000000097e-01 -2.091759999999999842e+00 5.720049999999999635e+00 1.028481000000000023e+01 7.404840000000000089e+00 -5.104000000000000203e-02 1.356597999999999971e+01 5.714099999999999735e-01 1.387210000000000054e+00 1.833348000000000155e+01 -2.791519999999999779e+00 5.297290000000000276e+00 3.069259999999999877e+00 -2.028579999999999828e+00 4.259140000000000370e+00 1.953018000000000143e+01 -1.118799999999999933e-01 2.835620000000000029e+00 4.611100000000000421e+00 -4.252500000000000169e-01 2.521110000000000184e+00 8.928559999999999164e+00