6.455680000000000307e-01 -3.579199999999999743e-02 3.441609999999999947e-01 1.450889999999999957e-01 -5.971429999999999794e-01 -1.906994000000000078e+00 5.553120000000000278e-01 1.542078999999999978e+00 -3.014430000000000165e-01 6.221689999999999721e-01 2.301391000000000187e+00 8.218269999999999742e-01 -1.416411000000000087e+00 8.482520000000000060e-01 1.952889999999999904e-01 -1.795036000000000076e+00 -1.044989999999999947e-01 -1.718870000000000120e-01 -5.329460000000000308e-01 4.655529999999999946e-01 5.236000000000000203e-03 2.437570000000000014e-01 2.171599999999999919e-01 1.224534999999999929e+00 1.482434000000000029e+00 1.717972000000000055e+00 -2.955832000000000015e+00 1.351555000000000062e+00 -2.983979999999999966e-01 -1.146789999999999976e+00 -2.618889999999999829e-01 -8.230589999999999851e-01 -1.383620000000000128e-01 8.699200000000000266e-01 6.923319999999999474e-01 8.945699999999999485e-02 3.992310000000000025e-01 -5.150259999999999838e-01 -1.283630000000000049e-01 -9.110080000000000400e-01 -1.525199999999999993e-02 7.092979999999999841e-01 1.427197999999999967e+00 -7.221119999999999761e-01 -1.083190000000000097e+00 -2.084826000000000068e+00 7.540489999999999693e-01 1.249141000000000057e+00 -1.229586999999999986e+00 -1.882582999999999895e+00 9.056880000000000486e-01 -1.285781999999999980e+00 7.358959999999999946e-01 -2.088990000000000014e-01 -4.391249999999999876e-01 -7.168419999999999792e-01 5.213999999999999885e-03 2.787850000000000050e-01 2.109290000000000054e-01 3.647700000000000248e-02 1.124061999999999895e+00 1.092532999999999976e+00 -8.520180000000000531e-01 9.009160000000000501e-01 -1.681696999999999997e+00 1.760019999999999918e-01 2.780540000000000234e-01 -3.875890000000000168e-01 5.282409999999999606e-01 3.542409999999999726e-01 -1.736207999999999974e+00 9.553639999999999910e-01 -1.292667000000000010e+00 -6.547309999999999519e-01 -3.821120000000000072e-01 -1.552386000000000044e+00 9.363329999999999709e-01 -2.412900000000000045e-01 -4.685340000000000060e-01 6.812009999999999454e-01 -4.281800000000000050e-01 2.430720000000000103e-01 -2.248616999999999866e+00 1.111761999999999917e+00 8.718110000000000026e-01 3.846519999999999939e-01 5.233079999999999954e-01 1.477022999999999975e+00 -1.607840000000000102e-01 1.064359999999999973e+00
9.245160000000000045e-01 -4.754699999999999899e-02 -4.588530000000000109e-01 -9.724749999999999783e-01 -1.020300000000000026e-02 -1.264132999999999951e+00 -4.672669999999999879e-01 7.607999999999999485e-02 5.346060000000000256e-01 -6.956670000000000353e-01 -1.760170000000000068e-01 -6.383659999999999890e-01 5.157799999999999885e-02 -2.787310000000000065e-01 1.979100000000000026e-01 5.453320000000000389e-01 2.495950000000000113e-01 -3.449100000000000082e-02 -8.849010000000000487e-01 -7.297599999999999920e-02 -6.444980000000000153e-01 1.219522999999999913e+00 2.337160000000000071e-01 -2.114883999999999986e+00 2.150670999999999999e+00 8.837580000000000435e-01 3.805180000000000229e-01 1.284515000000000073e+00 2.395480000000000109e-01 -1.436430000000000096e+00 2.044608999999999899e+00 -2.981909999999999838e-01 1.081199999999999939e+00 6.085739999999999483e-01 -8.271640000000000104e-01 -4.792299999999999893e-01 -1.037128000000000050e+00 -4.496729999999999894e-01 2.198674000000000017e+00 3.407979999999999898e-01 -2.988149999999999973e-01 7.138839999999999630e-01 -1.798160000000000036e-01 6.650110000000000188e-01 -8.555300000000000404e-02 3.823300000000000032e-01 1.172058999999999962e+00 -3.145370000000000110e-01 2.178030999999999828e+00 8.207000000000000753e-03 7.048360000000000181e-01 -5.693470000000000475e-01 1.164230000000000098e+00 6.846910000000000496e-01 -2.410380000000000023e-01 1.242130000000000040e-01 1.184189999999999965e-01 -7.136869999999999603e-01 -3.627340000000000009e-01 -1.864540000000000086e-01 -9.553000000000000380e-01 -2.165620000000000045e-01 -8.509179999999999522e-01 3.519559999999999911e-01 -1.054999999999999938e+00 -1.019619999999999971e+00 4.846900000000000097e-01 -4.636120000000000241e-01 3.548549999999999760e-01 -9.186100000000000376e-01 -4.499999999999999833e-02 -4.399799999999999822e-01 -5.518809999999999549e-01 7.239919999999999689e-01 1.264472999999999958e+00 -4.610070000000000001e-01 3.622600000000000264e-01 3.408740000000000103e-01 -1.230987999999999971e+00 8.392239999999999700e-01 3.955029999999999935e-01 -1.078321000000000085e+00 -9.969860000000000388e-01 1.066658000000000106e+00 -9.197049999999999947e-01 -6.495379999999999487e-01 1.858940000000000037e-01 -6.899859999999999882e-01 -4.931470000000000020e-01 -2.550470000000000237e-01
1.452219999999999900e-01 2.563599999999999768e-01 -5.589000000000000218e-02 -4.318210000000000104e-01 -4.927869999999999751e-01 1.086000000000000021e-01 1.498464999999999936e+00 -9.322909999999999808e-01 -1.993770999999999960e+00 -7.607080000000000508e-01 7.535000000000000031e-03 -1.276953000000000005e+00 -1.810400999999999927e+00 1.386636999999999897e+00 -2.186859999999999915e-01 3.423390000000000044e-01 -1.098020999999999914e+00 2.700899999999999829e-02 2.640159999999999729e-01 -9.062599999999999545e-01 -4.169309999999999961e-01 -2.328189999999999982e-01 -8.363359999999999683e-01 -7.073999999999999733e-02 -1.053234999999999921e+00 7.058799999999999797e-02 3.629830000000000001e-01 8.965279999999999916e-01 1.938759999999999928e-01 -1.504000000000000059e-01 -9.281709999999999683e-01 3.526199999999999890e-01 -4.641680000000000250e-01 7.247930000000000206e-01 8.471279999999999921e-01 6.629869999999999930e-01 4.030259999999999954e-01 8.597899999999999987e-02 1.228149999999999936e-01 8.976699999999999957e-02 -1.536150000000000015e-01 -6.847069999999999546e-01 5.929520000000000346e-01 -9.824929999999999497e-01 -7.755199999999999594e-02 2.917319999999999913e-01 4.113649999999999807e-01 -1.141940000000000038e-01 2.730850000000000222e-01 -5.514959999999999862e-01 8.959999999999999866e-04 -5.753639999999999866e-01 1.104770000000000058e-01 8.279680000000000373e-01 -8.936680000000000179e-01 -6.855350000000000055e-01 5.998229999999999951e-01 3.856600000000000306e-02 2.994600000000000040e-01 3.120169999999999888e-01 -8.585000000000000617e-03 4.679749999999999743e-01 -7.723759999999999515e-01 -3.060060000000000002e-01 1.059350999999999932e+00 2.786664000000000030e+00 -5.278089999999999726e-01 1.146220999999999934e+00 6.990100000000000480e-02 -2.533030000000000004e-01 8.033099999999999685e-01 -3.390210000000000168e-01 -5.399129999999999763e-01 2.207679999999999920e-01 -1.505340000000000011e-01 5.008519999999999639e-01 -5.905129999999999546e-01 -1.088413000000000075e+00 1.008308999999999900e+00 9.474380000000000024e-01 3.856229999999999936e-01 5.461110000000000131e-01 3.607850000000000223e-01 6.771409999999999929e-01 7.703160000000000007e-01 -1.482302000000000008e+00 1.304311999999999916e+00 -6.427399999999999780e-02 -3.162260000000000071e-01 -3.744009999999999838e-01
4.668140000000000067e-01 2.193970000000000087e-01 1.081628000000000034e+00 -1.740190000000000070e-01 5.736989999999999590e-01 5.762049999999999672e-01 2.000506000000000117e+00 2.100994000000000028e+00 -1.354163000000000006e+00 1.097655999999999965e+00 -7.698869999999999880e-01 5.886099999999999666e-02 7.084300000000000319e-02 2.201029999999999931e-01 3.542429999999999746e-01 -1.170063999999999993e+00 2.611993000000000009e+00 5.384799999999999587e-01 3.360739999999999839e-01 -5.533130000000000548e-01 -1.217691999999999997e+00 4.118569999999999731e-01 -5.500960000000000294e-01 -1.293069999999999942e+00 -9.856549999999999478e-01 -3.459929999999999950e-01 -1.224496000000000029e+00 -1.830499999999999836e-02 5.064330000000000220e-01 8.386799999999999811e-01 -1.653500000000000109e-02 -1.505303000000000058e+00 -9.368100000000000316e-01 -2.739849999999999786e-01 7.739799999999999458e-02 3.091800000000000104e-01 3.607290000000000219e-01 2.748369999999999980e-01 1.092324000000000073e+00 -1.025441000000000047e+00 -7.783500000000000141e-02 1.135197000000000012e+00 -5.165700000000000153e-02 1.020199999999999926e-02 -2.560689999999999911e-01 2.386560000000000070e-01 -4.937799999999999828e-02 4.385599999999999915e-02 -1.242947000000000024e+00 3.668589999999999907e-01 4.706150000000000055e-01 5.369570000000000176e-01 -4.309580000000000077e-01 -1.771899999999999864e-01 -5.928299999999999681e-01 -7.621999999999999886e-01 -7.543500000000000205e-02 -1.888839999999999963e-01 -1.975880000000000136e-01 1.476059999999999872e-01 1.129575999999999913e+00 -3.347289999999999988e-01 6.336999999999999578e-02 -2.411320000000000130e-01 1.609609999999999930e-01 -1.684859999999999969e-01 -7.674809999999999688e-01 -6.081769999999999676e-01 -7.070619999999999683e-01 -1.089119999999999949e-01 -7.726819999999999800e-01 -3.797300000000000120e-01 4.601870000000000127e-01 1.323798000000000030e+00 -4.524830000000000241e-01 -8.633330000000000171e-01 -1.004734000000000016e+00 2.854479999999999795e-01 -5.187500000000000444e-01 -1.003586000000000089e+00 1.008591999999999933e+00 -9.740000000000000394e-03 4.550520000000000120e-01 -6.964780000000000415e-01 1.495004999999999917e+00 1.042500000000000024e-02 1.615080000000000127e-01 -3.551880000000000037e-01 5.430800000000000211e-02 7.733710000000000306e-01
5.777149999999999785e-01 8.347400000000000375e-01 1.514409999999999923e-01 -2.828840000000000243e-01 1.327949999999999964e-01 1.694209000000000076e+00 1.470249999999999890e-01 3.777170000000000250e-01 1.470552000000000081e+00 1.409913999999999890e+00 -1.072619999999999962e-01 -1.005560999999999927e+00 -1.476229000000000013e+00 2.553320000000000034e-01 -1.537401999999999935e+00 -3.458760000000000168e-01 -1.449143999999999988e+00 -7.132969999999999589e-01 5.950229999999999686e-01 1.486099999999999921e-02 1.213599999999999922e-02 -6.550200000000000466e-01 -2.933689999999999909e-01 2.420960000000000056e-01 -1.765369999999999995e-01 -3.900680000000000258e-01 4.438050000000000050e-01 -2.280235999999999930e+00 -6.205299999999999705e-02 -1.330729999999999968e+00 -1.210199000000000025e+00 -9.664499999999999480e-02 -9.647310000000000052e-01 1.367545999999999928e+00 9.016070000000000473e-01 -1.887240000000000029e-01 4.544860000000000011e-01 2.700429999999999775e-01 -6.728499999999999481e-01 3.113319999999999976e-01 -1.864400000000000085e-02 -3.419380000000000197e-01 -1.553070000000000006e-01 8.453760000000000163e-01 1.127874000000000043e+00 -6.097740000000000382e-01 -6.815020000000000522e-01 -3.531670000000000087e-01 1.175154000000000032e+00 -3.550880000000000147e-01 -1.069839999999999958e-01 -7.665490000000000359e-01 -4.159700000000000203e-02 9.602199999999999624e-01 4.883500000000000341e-02 -2.004160000000000164e+00 5.476729999999999654e-01 -4.906260000000000066e-01 3.882660000000000000e-01 1.250110000000000110e-01 2.403490000000000071e-01 8.941160000000000219e-01 2.926639999999999797e-01 -2.216500000000000137e-01 -4.414540000000000131e-01 -6.381179999999999630e-01 5.844719999999999915e-01 7.618759999999999977e-01 1.228744999999999976e+00 -8.360870000000000246e-01 6.620399999999999618e-01 -7.874440000000000328e-01 -6.191579999999999862e-01 -3.184599999999999931e-02 7.267940000000000511e-01 1.555255000000000054e+00 -2.847399999999999931e-01 3.407229999999999981e-01 9.847669999999999479e-01 1.231310000000000043e-01 2.299360000000000015e-01 1.032119999999999982e-01 -5.722990000000000022e-01 5.300380000000000091e-01 1.285139999999999894e-01 6.832439999999999625e-01 -6.667020000000000168e-01 4.425339999999999829e-01 -3.152730000000000254e-01 -8.162690000000000223e-01
2.986090000000000133e-01 -9.800899999999999890e-02 -3.996830000000000105e-01 -3.495820000000000038e-01 -4.039590000000000125e-01 -2.780810000000000226e-01 2.028359999999999885e-01 -1.948660000000000114e-01 1.261929999999999996e-01 -1.563188000000000022e+00 4.078299999999999981e-02 7.059400000000000119e-01 -1.891569999999999918e-01 5.879910000000000414e-01 2.720799999999999885e-01 -1.032154999999999934e+00 6.859750000000000014e-01 -1.614279999999999882e-01 -6.683149999999999924e-01 -1.903590000000000004e-01 6.513529999999999598e-01 4.125860000000000083e-01 2.487060000000000104e-01 2.245799999999999880e-02 3.973979999999999735e-01 -7.478780000000000427e-01 8.964950000000000419e-01 4.018939999999999735e-01 -4.455319999999999836e-01 -8.835749999999999993e-01 1.439400000000000054e-02 -2.236660000000000037e-01 4.393400000000000083e-01 1.165000000000000063e-02 5.560659999999999492e-01 6.834869999999999557e-01 2.477729999999999932e-01 2.248840000000000006e-01 -6.782730000000000148e-01 -4.160809999999999786e-01 5.499340000000000339e-01 -6.198069999999999968e-01 -1.219300000000000050e+00 -8.422699999999999632e-01 -1.484148999999999941e+00 6.802160000000000428e-01 8.019230000000000524e-01 3.173179999999999890e-01 3.786610000000000253e-01 2.531160000000000077e-01 -7.009980000000000100e-01 -1.043749000000000038e+00 -1.510437999999999947e+00 -6.021900000000000169e-02 1.994539999999999924e-01 -9.295550000000000201e-01 -1.973340000000000094e-01 -2.961659999999999848e-01 1.214398000000000089e+00 -3.455980000000000163e-01 7.298369999999999580e-01 -1.080999999999999930e-03 1.115486999999999895e+00 2.693809999999999816e-01 -3.021739999999999982e-01 -2.467400000000000149e-02 2.132999999999999896e-01 4.466530000000000222e-01 -9.755610000000000115e-01 -1.637230000000000074e-01 9.110169999999999657e-01 8.402400000000000146e-02 1.152873000000000037e+00 -6.849830000000000085e-01 -4.281139999999999946e-01 1.239676000000000000e+00 2.615400000000000016e-02 6.985130000000000505e-01 -5.732399999999999718e-01 4.580859999999999932e-01 -1.262126000000000081e+00 -2.110249999999999904e-01 1.196026999999999951e+00 1.831917000000000018e+00 9.410359999999999836e-01 -1.182365000000000110e+00 3.340800000000000020e-02 -6.589100000000000512e-02 -4.445790000000000020e-01 6.216120000000000534e-01
3.914340000000000042e-01 -9.729400000000000548e-02 -1.374068999999999985e+00 -5.200820000000000443e-01 3.323679999999999968e-01 7.710780000000000411e-01 2.488120000000000054e-01 5.077209999999999779e-01 8.939800000000000524e-02 7.301320000000000032e-01 3.653150000000000008e-01 -1.258599999999999997e-01 5.099050000000000527e-01 6.734189999999999898e-01 9.672250000000000014e-01 -3.586119999999999863e-01 7.322079999999999700e-01 -1.350929999999999909e-01 -6.041699999999999848e-01 -1.219397999999999982e+00 -1.133289999999999992e-01 6.707140000000000324e-01 -6.040870000000000406e-01 -2.641319999999999779e-01 -9.838719999999999688e-01 -1.006134000000000084e+00 -5.538099999999999967e-02 7.480959999999999832e-01 9.569199999999999928e-02 1.187129999999999991e-01 -8.310900000000000232e-02 -4.632490000000000219e-01 -2.452719999999999900e-01 -2.940600000000000158e-02 -7.721479999999999455e-01 5.439159999999999551e-01 4.891940000000000177e-01 -5.341989999999999794e-01 -6.526340000000000474e-01 -4.201130000000000142e-01 -7.124279999999999502e-01 -3.233849999999999780e-01 2.214649999999999952e-01 9.809769999999999879e-01 1.876259999999999872e-01 -5.469700000000000256e-02 7.417839999999999989e-01 2.704150000000000165e-01 5.740269999999999539e-01 -9.637339999999999796e-01 -8.162600000000000411e-02 3.762130000000000196e-01 -1.806869999999999865e-01 -8.565599999999999603e-02 1.225369999999999931e-01 -1.362254999999999994e+00 8.214089999999999447e-01 1.002936000000000050e+00 5.347499999999999476e-01 -6.211269999999999847e-01 -2.437599999999999836e-02 7.716619999999999591e-01 2.692860000000000253e-01 1.473099999999999965e-01 7.669259999999999966e-01 5.169409999999999838e-01 -4.521430000000000171e-01 3.745519999999999960e-01 -1.566390000000000005e-01 -8.408050000000000246e-01 3.884710000000000107e-01 -1.317879999999999885e-01 8.148099999999999787e-02 9.886719999999999953e-01 1.695294000000000079e+00 -4.928279999999999883e-01 -1.266899999999999971e-01 -2.834209999999999785e-01 9.112980000000000524e-01 -2.668389999999999929e-01 -6.236190000000000344e-01 -1.744261999999999979e+00 -2.850199999999999956e-02 -1.608009999999999995e-01 -4.200519999999999810e-01 -3.210589999999999833e-01 -7.672569999999999668e-01 -1.970280000000000087e-01 4.041870000000000185e-01 -5.021199999999999969e-02
1.348525999999999891e+00 1.543719000000000063e+00 -9.077070000000000416e-01 -9.514850000000000252e-01 -5.949119999999999964e-01 2.923810000000000020e-01 -1.932139999999999969e-01 4.044639999999999902e-01 -1.451986999999999917e+00 -8.038170000000000037e-01 -1.393742000000000036e+00 4.163900000000000240e-02 -1.700947999999999904e+00 9.465200000000000280e-01 -8.778259999999999952e-01 2.215060000000000084e-01 4.028979999999999784e-01 -2.516220000000000123e-01 1.403974000000000055e+00 -5.117429999999999479e-01 -2.295860000000000123e-01 2.352859999999999951e-01 -1.131449999999999956e-01 -2.765630000000000033e-01 -4.479279999999999928e-01 -9.006349999999999634e-01 1.850050000000000028e-01 6.315100000000000158e-01 1.544939999999999924e-01 8.278680000000000483e-01 -3.949699999999999739e-02 1.149740000000000067e-01 3.899279999999999968e-01 -4.161230000000000206e-01 -6.928609999999999491e-01 -1.256770000000000109e-01 3.724100000000000188e-01 9.929689999999999905e-01 1.240801999999999961e+00 -2.999459999999999904e-01 -5.285200000000000314e-02 5.357269999999999532e-01 3.672639999999999794e-01 3.976709999999999967e-01 -1.228479999999999989e-01 8.534080000000000554e-01 9.202939999999999454e-01 -3.627999999999999975e-02 3.466679999999999762e-01 6.930420000000000469e-01 -4.165849999999999831e-01 3.319039999999999768e-01 -2.388720000000000010e-01 4.582729999999999859e-01 8.818340000000000067e-01 -1.935109999999999886e-01 4.447639999999999927e-01 8.588419999999999943e-01 2.617889999999999939e-01 7.167999999999999892e-03 -8.559609999999999719e-01 -4.717899999999999872e-02 8.978739999999999499e-01 -7.094530000000000003e-01 -1.544399999999999940e-02 -2.169600000000000001e-02 -8.540399999999999381e-02 -2.118751000000000051e+00 8.109750000000000014e-01 -7.583410000000000428e-01 2.834929999999999950e-01 -8.152700000000000502e-01 -1.353650000000000131e-01 3.510059999999999847e-01 1.685820000000000096e-01 -1.067579999999999973e+00 3.914750000000000174e-01 -4.429540000000000144e-01 4.573209999999999775e-01 2.348979999999999957e-01 3.716700000000000004e-01 5.239369999999999861e-01 -1.094206000000000012e+00 -7.352799999999999614e-02 -7.059119999999999839e-01 4.561620000000000119e-01 -4.444159999999999777e-01 3.365830000000000211e-01 -5.820149999999999491e-01 -1.781099999999999905e-01
-1.060902000000000012e+00 -1.494320000000000093e-01 -8.500969999999999915e-01 -1.423459999999999948e+00 -9.295069999999999721e-01 -5.288469999999999560e-01 -5.664409999999999723e-01 1.419186999999999976e+00 5.921229999999999549e-01 -1.186455000000000037e+00 -1.393048999999999982e+00 -1.513735999999999970e+00 2.754741999999999802e+00 1.204083000000000014e+00 -3.793239999999999945e-01 2.167499999999999982e-01 -2.086610000000000131e-01 2.083099999999999952e-01 -1.381296000000000079e+00 7.630109999999999948e-01 -3.995349999999999735e-01 4.225459999999999772e-01 1.052209999999999951e-01 7.068670000000000231e-01 6.246019999999999905e-01 5.656149999999999789e-01 -3.481940000000000035e-01 4.080039999999999778e-01 2.812239999999999740e-01 5.462749999999999551e-01 -1.193700000000000039e-01 -1.603520999999999974e+00 1.297439999999999982e-01 -1.433240000000000069e-01 1.386392999999999986e+00 1.562149999999999928e-01 5.386440000000000117e-01 -2.264960000000000029e-01 4.425390000000000157e-01 1.227959000000000023e+00 -4.731319999999999970e-01 6.267399999999999360e-02 -3.274900000000000033e-02 8.425690000000000124e-01 1.537603000000000053e+00 2.570270000000000055e-01 -4.231739999999999946e-01 -8.751100000000000545e-01 -6.012920000000000487e-01 -5.316990000000000327e-01 -1.584079999999999933e-01 1.219530000000000003e+00 -4.443070000000000075e-01 2.663989999999999969e-01 -2.001945999999999781e+00 -9.141690000000000094e-01 3.430560000000000276e-01 4.887690000000000090e-01 3.510719999999999952e-01 -4.676890000000000214e-01 4.335979999999999834e-01 -3.542870000000000186e-01 2.393800000000000094e-02 -1.381575999999999915e+00 -5.837189999999999879e-01 7.866299999999999681e-02 8.883299999999999530e-02 5.085000000000000110e-03 4.541200000000000098e-02 1.379160000000000108e-01 -4.759599999999999942e-01 2.041469999999999951e-01 8.534500000000000419e-02 6.979399999999999493e-02 1.379869999999999985e-01 5.198409999999999975e-01 3.806660000000000044e-01 -1.414489999999999914e-01 -5.872349999999999515e-01 7.031500000000000250e-02 5.551599999999999868e-01 1.881529999999999869e-01 2.965969999999999995e-01 6.944449999999999790e-01 2.986320000000000086e-01 9.303949999999999720e-01 -1.806250000000000078e-01 5.751549999999999718e-01 3.988799999999999985e-02 -8.885420000000000540e-01
5.889180000000000526e-01 1.384687000000000001e+00 -2.839249999999999829e-01 -6.950359999999999872e-01 -4.376280000000000170e-01 1.211730000000000029e-01 -5.067840000000000122e-01 9.655589999999999451e-01 -1.605585000000000040e+00 -8.592499999999999583e-01 -1.109782999999999964e+00 -1.571249999999999869e-01 -1.440706000000000042e+00 1.296105000000000063e+00 -4.725440000000000196e-01 4.701520000000000143e-01 -8.167029999999999568e-01 -7.317200000000000093e-02 8.958599999999999897e-01 -1.023198999999999970e+00 -4.874430000000000152e-01 5.450699999999999990e-02 -9.946450000000000014e-01 -1.183799999999999991e-01 -8.297360000000000291e-01 -6.965500000000000025e-01 2.167459999999999942e-01 5.567520000000000246e-01 1.635100000000000095e-02 1.127604000000000051e+00 2.592849999999999877e-01 -1.681529999999999969e-01 2.117279999999999995e-01 -5.578330000000000233e-01 -7.263269999999999449e-01 -7.214340000000000197e-01 4.614090000000000136e-01 1.156609999999999916e+00 1.503031999999999924e+00 -2.895559999999999801e-01 -3.395340000000000025e-01 1.103164000000000033e+00 4.957179999999999920e-01 5.111999999999999877e-01 -7.657899999999999430e-02 1.039074999999999971e+00 7.174829999999999819e-01 -4.634650000000000158e-01 3.127280000000000060e-01 7.991399999999999615e-01 -2.296769999999999923e-01 3.622830000000000217e-01 1.034156999999999993e+00 9.053569999999999673e-01 1.176754999999999995e+00 -8.791200000000000403e-02 6.147249999999999659e-01 3.673770000000000091e-01 2.985280000000000156e-01 -6.011799999999999783e-02 -9.186640000000000361e-01 2.961700000000000096e-02 1.375699999999999978e-01 -4.706359999999999988e-01 3.679359999999999853e-01 -6.623600000000000321e-02 -1.462930000000000064e-01 -1.759999000000000091e+00 8.208680000000000421e-01 -4.794919999999999738e-01 -2.271090000000000053e-01 -5.864300000000000068e-01 -2.646499999999999894e-02 5.569889999999999564e-01 4.151420000000000110e-01 -1.018956999999999891e+00 1.992839999999999889e-01 -1.143297999999999925e+00 4.457990000000000008e-01 -2.772459999999999924e-01 3.194119999999999737e-01 6.456460000000000532e-01 -1.056365999999999916e+00 -3.901490000000000236e-01 -7.035609999999999919e-01 4.638189999999999813e-01 2.822600000000000109e-02 8.107050000000000090e-01 -7.630800000000000083e-02 -5.891880000000000450e-01
-1.660346000000000100e+00 -1.453742000000000090e+00 -1.232836000000000043e+00 2.972569999999999935e-01 3.549880000000000257e-01 -8.756429999999999492e-01 1.181445999999999996e+00 2.194119999999999959e-01 -4.956619999999999915e-01 1.214973000000000081e+00 1.009436999999999918e+00 1.138152000000000053e+00 -3.681070000000000175e-01 2.760378000000000220e+00 -1.809428000000000036e+00 4.503400000000000181e-01 1.009486000000000105e+00 6.146850000000000369e-01 -6.558450000000000113e-01 2.749260000000000037e-01 2.820329999999999782e-01 8.657129999999999548e-01 5.408110000000000417e-01 -1.450790000000000135e-01 -1.377399999999999979e-02 1.627356999999999942e+00 -3.955919999999999992e-01 -2.478110000000000035e-01 -4.445979999999999932e-01 9.538299999999999557e-02 9.841490000000000515e-01 -5.618399999999999783e-02 -9.791039999999999743e-01 5.842200000000000171e-02 -9.099159999999999471e-01 -5.907310000000000061e-01 -2.143562999999999885e+00 -1.205439999999999984e-01 -2.012239999999999862e-01 1.133330000000000032e-01 -9.026640000000000219e-01 6.225610000000000310e-01 1.113059999999999938e+00 -3.367580000000000018e-01 -6.862730000000000219e-01 -1.329927999999999999e+00 -5.172799999999999621e-01 -5.247800000000000242e-01 -8.942280000000000229e-01 7.630139999999999700e-01 1.372095999999999982e+00 8.923069999999999613e-01 8.886399999999999855e-02 -6.685489999999999489e-01 3.727548000000000084e+00 2.240314999999999834e+00 2.013326000000000171e+00 -6.110160000000000036e-01 -1.175173999999999941e+00 -2.749599999999999822e-01 -1.928080000000000072e-01 -2.611832000000000154e+00 1.165732999999999908e+00 5.158040000000000402e-01 -4.928580000000000183e-01 -1.698359999999999870e-01 -1.121966000000000019e+00 -1.890465000000000062e+00 7.862190000000000012e-01 6.332079999999999931e-01 -7.660430000000000295e-01 3.498319999999999763e-01 -5.563369999999999704e-01 -4.719490000000000074e-01 -6.612280000000000380e-01 -6.672339999999999938e-01 -1.126739999999999964e-01 -5.173520000000000341e-01 -6.904860000000000442e-01 -6.004059999999999953e-01 5.547590000000000021e-01 -1.313512999999999931e+00 9.277819999999999956e-01 -7.356099999999999861e-01 6.267200000000000548e-01 8.410560000000000258e-01 9.153900000000000370e-01 -2.073190000000000033e-01 2.052640000000000020e-01 1.053714999999999957e+00
-5.146140000000000159e-01 -1.920409999999999895e-01 -4.160320000000000129e-01 5.967449999999999699e-01 9.841000000000000789e-03 1.673375999999999975e+00 4.870010000000000172e-01 2.129820000000000046e-01 1.310926000000000036e+00 1.282615000000000061e+00 -1.084287999999999919e+00 -1.880444000000000004e+00 -1.316910000000000025e+00 8.725640000000000063e-01 -1.486769999999999925e+00 -8.254399999999999515e-01 -2.145477000000000078e+00 -8.294759999999999911e-01 6.237059999999999826e-01 1.607949999999999935e-01 -7.461399999999999977e-02 -4.169340000000000268e-01 -2.640930000000000222e-01 9.727600000000000136e-02 1.162200000000000039e-02 1.038685999999999998e+00 6.624599999999999933e-02 -8.917329999999999979e-01 -4.809100000000000180e-02 -7.388040000000000163e-01 -8.243260000000000032e-01 -2.313449999999999951e-01 -1.246642999999999946e+00 3.065252999999999783e+00 2.220924999999999816e+00 -3.614552000000000209e+00 1.724279999999999979e-01 2.775349999999999762e-01 -9.746230000000000171e-01 -1.074300000000000081e-02 -8.064320000000000377e-01 -7.531139999999999501e-01 -5.665369999999999573e-01 1.624981999999999926e+00 1.601280999999999954e+00 -4.801909999999999790e-01 -9.759060000000000512e-01 -4.601060000000000150e-01 6.747309999999999697e-01 -4.023499999999999993e-02 -6.395629999999999926e-01 -2.366525000000000212e+00 -3.705330000000000013e-01 4.414143000000000150e+00 9.611969999999999681e-01 -1.164639999999999898e+00 1.065247000000000055e+00 -3.561860000000000026e-01 -5.238400000000000001e-02 -7.380000000000000449e-02 2.877419999999999978e-01 3.396989999999999732e-01 4.769109999999999738e-01 -2.621499999999999872e-02 -1.219033000000000033e+00 -1.133750000000000036e-01 6.812040000000000317e-01 8.563939999999999886e-01 1.217473000000000027e+00 -9.536390000000000144e-01 4.067020000000000080e-01 1.378649999999999876e-01 -5.333980000000000388e-01 2.764679999999999915e-01 1.280362000000000000e+00 7.857129999999999947e-01 -1.869629999999999903e-01 2.711839999999999806e-01 4.945820000000000216e-01 1.927109999999999934e-01 3.741470000000000073e-01 5.090299999999999686e-02 -2.491530000000000133e-01 4.685750000000000193e-01 -8.102600000000000080e-02 2.984939999999999816e-01 -5.631359999999999699e-01 -1.102400000000000081e-02 2.418359999999999954e-01 -5.899590000000000112e-01
2.545749999999999957e-01 1.505599999999999994e-02 -5.004610000000000447e-01 -4.681870000000000198e-01 -2.668659999999999921e-01 1.530449999999999866e-01 -5.701230000000000464e-01 -1.007883000000000084e+00 -7.108440000000000314e-01 -1.165480000000000071e+00 -3.962049999999999739e-01 -3.505840000000000067e-01 -1.130639999999999978e-01 6.206810000000000382e-01 2.655549999999999855e-01 -1.933262000000000036e+00 8.510389999999999899e-01 5.376500000000000029e-02 -7.251990000000000380e-01 -3.857940000000000258e-01 8.938500000000000612e-02 -2.983600000000000141e-02 -5.702730000000000299e-01 9.318200000000000094e-02 1.516129999999999978e+00 -1.556149999999999922e+00 2.024720999999999993e+00 6.779560000000000031e-01 -3.861870000000000025e-01 -1.655050000000000132e-01 2.509999999999999753e-04 -2.286600000000000021e-01 1.713859999999999939e+00 1.086181000000000063e+00 -3.139009999999999856e-01 1.270175000000000054e+00 1.032645000000000035e+00 5.851899999999999880e-01 -2.256980000000000097e-01 -5.990630000000000122e-01 7.643910000000000426e-01 -4.108359999999999790e-01 -9.690940000000000110e-01 -3.805310000000000081e-01 -6.818039999999999656e-01 9.855460000000000331e-01 8.383389999999999453e-01 4.366340000000000221e-01 7.388149999999999995e-01 2.617260000000000142e-01 -6.925040000000000084e-01 -8.271640000000000104e-01 -1.448585999999999929e+00 7.540869999999999518e-01 6.050599999999999729e-02 -9.567620000000000013e-01 -2.865179999999999949e-01 1.965659999999999907e-01 9.012999999999999901e-01 -3.769370000000000220e-01 7.440620000000000012e-01 1.608999999999999970e-03 9.042869999999999520e-01 -2.876650000000000040e-01 -5.997199999999999753e-02 -8.894299999999999429e-02 2.472340000000000093e-01 5.431390000000000384e-01 -1.980418000000000012e+00 -2.979479999999999906e-01 2.170920999999999879e+00 -6.673480000000000523e-01 6.555800000000000516e-01 -3.072759999999999936e-01 -2.224770000000000081e-01 3.849929999999999741e-01 4.299080000000000124e-01 5.670920000000000405e-01 -6.147319999999999451e-01 1.051414999999999988e+00 -2.135984999999999800e+00 2.105900000000000133e-02 4.089969999999999994e-01 1.239216000000000095e+00 -2.654000000000000109e-03 -7.486019999999999897e-01 -1.066699999999999940e-02 1.369999999999999907e-03 -4.300629999999999731e-01 -5.747599999999999931e-02