-6.853866329000000235e+01
-6.871874124999999367e+01
-6.952076787000000024e+01
-6.981913588000000459e+01
-6.890708026999999447e+01
-6.894170809999999960e+01
-6.902169146999999327e+01
-6.925810529000000315e+01
-6.916053234999999688e+01
-6.969236107999999774e+01
-6.829788550000000669e+01
-6.641675696999999445e+01
-6.897761645999999303e+01
-6.937639923000000408e+01
-6.868467427999999586e+01
-6.953156192999999519e+01
-6.798763615000000016e+01
-6.935843859000000577e+01
-6.935161200999999664e+01
-6.764855153999999970e+01
-6.967523040999999751e+01
-6.908682215000000326e+01
-6.779739582999999925e+01
-6.934427139999999667e+01
-6.981401734000000658e+01
-6.892816507999999942e+01
-6.958763519000000031e+01
-6.852726038000000131e+01
-6.957245224000000405e+01
-6.928267666000000702e+01
-6.857684208000000581e+01
-6.851336983999999575e+01
-6.870111033999999961e+01
-6.880635058999999387e+01
-6.970008357999999760e+01
-6.848742384999999899e+01
-6.855942271000000687e+01
-6.932906282000000431e+01
-6.882262507999999457e+01
-6.960647996000000148e+01
-6.811562300999999309e+01
-6.834285891999999762e+01
-6.898306528000000526e+01
-6.969805637000000331e+01
-6.608304947000000595e+01
-6.880457167999999513e+01
-6.823395591999999965e+01
-6.923391653000000190e+01
-6.928388046999999972e+01
-6.937008117000000595e+01
-6.878950713000000405e+01
-6.842669288000000449e+01
-6.735167128000000503e+01
-6.928593897000000368e+01
-6.800796089000000677e+01
-6.943584534999999391e+01
-6.854490515999999900e+01
-6.929804343000000699e+01
-6.948466892000000428e+01
-6.604277023000000213e+01
-6.940443806000000393e+01
-6.786528060000000551e+01
-6.801100078000000337e+01
-6.943238361999999597e+01
-6.851558307999999897e+01
-6.966282506999999669e+01
-6.879722952999999563e+01
-6.907092762999999991e+01
-6.926902391000000137e+01
-6.942775514999999587e+01
-6.720784326000000419e+01
-6.929943987000000050e+01
-6.853757813999999371e+01
-6.841209492999999497e+01
-6.957930650000000128e+01
-6.853210529000000406e+01
-6.880233336999999949e+01
-6.949901964000000021e+01
-6.873650157000000149e+01
-6.860575029000000313e+01
-6.855925960999999802e+01
-6.950110641999999928e+01
-6.519855063999999345e+01
-6.868794762999999648e+01
-6.906276083000000199e+01
-6.954681965999999704e+01
-6.973218939999999577e+01
-6.963236216999999328e+01
-6.960421748999999636e+01
-6.586603298999999367e+01
-6.948001927999999339e+01
-6.860440805000000353e+01
-6.634113324000000489e+01
-6.932782070999999746e+01
-6.950740283000000375e+01
-6.558910208000000353e+01
-6.946854512999999542e+01
-6.646369255999999837e+01
-6.929226180999999940e+01
-7.003016082999999981e+01
