1.251099999999999990e-01 1.242400000000000032e-01 -1.067270000000000024e-01 5.087350000000000483e-01 4.938049999999999939e-01 -2.596399999999999819e-01 -1.311489999999999878e-01 1.317500000000000060e-01 -5.239719999999999933e-01 5.434599999999999848e-02 4.566859999999999808e-01 2.815300000000000025e-01 -5.253649999999999709e-01 7.863569999999999727e-01 -1.912179999999999991e-01 -5.149970000000000381e-01 3.702039999999999775e-01 6.135559999999999903e-01 -2.474939999999999918e-01 -2.965639999999999943e-01 -2.448430000000000051e-01 7.488599999999999424e-02 -2.778689999999999771e-01 -1.103400000000000040e-02 -2.357140000000000069e-01 -3.960250000000000159e-01 -5.442099999999999715e-02 -2.593019999999999770e-01 -4.344729999999999981e-01 6.791999999999999427e-02 -5.584800000000000181e-02 -4.526959999999999873e-01 -2.117219999999999935e-01 -3.909610000000000030e-01 -1.528239999999999876e-01 9.337099999999999567e-02 -4.133330000000000060e-01 -4.211800000000000266e-02 2.740330000000000266e-01 -1.673250000000000015e-01 1.254800000000000082e-01 -2.338449999999999973e-01 5.336699999999999777e-01 3.312269999999999937e-01 2.227850000000000108e-01 6.537199999999999678e-01 2.157840000000000036e-01 -4.538050000000000139e-01 5.043079999999999785e-01 -2.236400000000000055e-01 -8.868299999999999794e-02 6.456579999999999542e-01 -8.846969999999999557e-01 2.134800000000000031e-01 3.037489999999999912e-01 -1.015520000000000034e-01 4.078080000000000038e-01 -4.626930000000000209e-01 2.269239999999999868e-01 2.054269999999999985e-01
1.185029999999999972e-01 -3.005289999999999906e-01 -7.108959999999999724e-01 -2.244609999999999939e-01 2.366439999999999932e-01 -6.295499999999999707e-02 -4.348119999999999763e-01 -2.999390000000000112e-01 -3.608859999999999846e-01 -1.448319999999999885e-01 -5.374970000000000026e-01 4.750510000000000010e-01 -5.799670000000000103e-01 9.583789999999999809e-01 -2.064999999999999995e-03 4.574269999999999725e-01 -4.654170000000000251e-01 1.007422000000000040e+00 -3.165879999999999805e-01 2.546370000000000022e-01 5.602110000000000145e-01 -1.670933000000000002e+00 -1.470559999999999923e-01 -1.535930999999999935e+00 6.722499999999999309e-02 5.535170000000000368e-01 -3.103659999999999752e-01 3.110760000000000192e-01 4.058379999999999765e-01 -7.560200000000000253e-02 3.380460000000000131e-01 2.301599999999999827e-02 3.108420000000000072e-01 1.426469999999999960e-01 -2.210000000000000159e-02 1.396419999999999884e-01 -1.025179999999999980e-01 -3.134609999999999896e-01 9.076180000000000359e-01 3.655599999999999961e-01 3.609899999999999776e-01 -3.717269999999999741e-01 4.032470000000000221e-01 -4.097700000000000231e-01 4.746119999999999783e-01 -7.317590000000000483e-01 4.693160000000000109e-01 -1.266462999999999894e+00 1.625383999999999940e+00 1.342402000000000095e+00 1.308071999999999901e+00 4.094780000000000086e-01 -6.070790000000000353e-01 -5.363090000000000357e-01 3.854549999999999921e-01 -4.511620000000000075e-01 -4.372309999999999808e-01 -4.181779999999999942e-01 -1.050729999999999942e+00 4.869609999999999772e-01
-3.903449999999999975e-01 2.658619999999999872e-01 -1.837820000000000009e-01 -7.008109999999999618e-01 -2.031560000000000032e-01 6.801570000000000116e-01 7.713360000000000216e-01 -9.166399999999999548e-02 1.001329999999999998e-01 -6.091099999999999987e-02 5.118279999999999497e-01 1.035169999999999979e-01 -4.562620000000000009e-01 4.912899999999999906e-02 -7.358199999999999463e-02 -3.423999999999999960e-03 8.275850000000000151e-01 -6.038810000000000011e-01 2.093019999999999881e-01 -5.091339999999999755e-01 -1.895820000000000005e-01 -1.326050000000000006e-01 4.132959999999999967e-01 2.657880000000000242e-01 1.057260000000000005e-01 2.267450000000000021e-01 5.496419999999999639e-01 3.248789999999999734e-01 3.471699999999999786e-01 -4.402600000000000263e-02 -6.349089999999999456e-01 -5.230829999999999647e-01 -4.311059999999999892e-01 1.910010000000000041e-01 -5.496689999999999632e-01 -1.453019999999999867e-01 6.984999999999999543e-02 -1.631559999999999955e-01 7.524699999999999445e-02 5.220799999999999746e-02 9.457000000000000128e-03 -6.147890000000000299e-01 5.691800000000000331e-02 1.080419999999999991e-01 1.918670000000000098e-01 -2.186859999999999915e-01 -1.884450000000000014e-01 2.836270000000000180e-01 1.917500000000000107e-02 -2.024930000000000063e-01 -4.358900000000000274e-02 7.912900000000000489e-01 -1.470299999999999940e-01 -1.664849999999999941e-01 -2.944350000000000023e-01 -3.077869999999999773e-01 2.338220000000000021e-01 3.007029999999999981e-01 1.265040000000000053e-01 1.232600000000000015e-02
4.129300000000000331e-02 -2.877649999999999930e-01 -2.298920000000000130e-01 1.071560000000000012e-01 1.833009999999999917e-01 -3.563640000000000141e-01 6.714199999999999335e-02 1.672750000000000070e-01 -7.127310000000000034e-01 6.121480000000000254e-01 5.146500000000000519e-01 -5.594699999999999673e-02 3.518720000000000181e-01 3.004069999999999796e-01 -1.218769999999999909e+00 1.382720000000000060e-01 -3.239399999999999918e-02 6.114640000000000075e-01 1.796000000000000027e-02 -6.678790000000000004e-01 3.600000000000000091e-05 1.039410000000000056e-01 -8.914199999999999902e-02 2.073959999999999970e-01 -1.904679999999999984e-01 -2.112999999999999948e-02 3.811599999999999988e-01 4.338969999999999771e-01 -1.680959999999999954e-01 9.776400000000000368e-02 1.754199999999999926e-01 -5.096979999999999844e-01 5.604999999999999982e-01 -1.172684000000000060e+00 -1.102130000000000054e-01 -2.359930000000000083e-01 -1.794360000000000122e-01 1.722049999999999970e-01 4.928500000000000103e-01 2.981759999999999966e-01 1.762090000000000045e-01 1.092619999999999980e-01 4.984219999999999762e-01 5.494500000000000078e-02 -5.544949999999999601e-01 -7.574910000000000254e-01 3.859369999999999745e-01 5.958970000000000100e-01 2.509020000000000139e-01 7.025369999999999671e-01 4.042680000000000162e-01 3.134990000000000276e-01 -4.127439999999999998e-01 -1.768160000000000009e-01 1.517419999999999880e-01 9.460420000000000496e-01 -4.463750000000000218e-01 -1.261762000000000050e+00 -1.304446999999999912e+00 5.267849999999999477e-01
-6.528859999999999664e-01 4.676319999999999921e-01 2.987020000000000231e-01 5.132719999999999505e-01 1.525849999999999984e-01 7.327890000000000237e-01 6.779269999999999463e-01 2.851449999999999818e-01 -9.587830000000000519e-01 3.014290000000000025e-01 -8.653600000000000181e-02 -1.963699999999999890e-01 -3.731180000000000052e-01 -3.452990000000000226e-01 -4.828399999999999914e-01 3.953809999999999825e-01 3.269859999999999989e-01 -3.198400000000000132e-01 3.530670000000000197e-01 -1.368179999999999952e-01 2.508730000000000127e-01 2.911170000000000146e-01 -9.480500000000000038e-02 -1.574929999999999941e-01 -2.624360000000000026e-01 1.896559999999999913e-01 3.549059999999999993e-01 -5.037810000000000343e-01 -1.358860000000000068e-01 5.702499999999999930e-02 2.929959999999999787e-01 -5.532550000000000523e-01 -2.939030000000000253e-01 -3.060329999999999995e-01 -3.446170000000000067e-01 1.324720000000000064e-01 2.571339999999999737e-01 5.981870000000000243e-01 -4.023499999999999854e-01 -2.342359999999999998e-01 2.449459999999999971e-01 -9.212190000000000101e-01 -4.905519999999999881e-01 1.577540000000000053e-01 7.778709999999999791e-01 1.696999999999999897e-01 -1.297245999999999899e+00 6.110100000000000253e-02 1.363097999999999921e+00 -9.603880000000000194e-01 7.684459999999999624e-01 -9.173099999999999588e-01 1.585107999999999961e+00 -9.076599999999999946e-02 -3.652449999999999863e-01 -2.682869999999999977e-01 1.090310000000000029e-01 -5.095260000000000344e-01 2.151369999999999949e-01 2.803490000000000149e-01
-5.735930000000000195e-01 -3.978450000000000042e-01 2.368850000000000122e-01 -7.808299999999999963e-02 3.443309999999999982e-01 1.896400000000000169e-02 2.175310000000000021e-01 -2.532420000000000226e-01 -2.084840000000000027e-01 3.286439999999999917e-01 2.735940000000000039e-01 2.229760000000000075e-01 3.036889999999999867e-01 1.326309999999999989e-01 -1.732940000000000036e-01 -6.791570000000000107e-01 -1.804469999999999963e-01 -5.063220000000000498e-01 -1.082248000000000099e+00 9.108579999999999455e-01 2.044269999999999976e-01 -4.553699999999999970e-01 -6.572959999999999914e-01 7.452720000000000455e-01 2.084989999999999899e-01 8.946180000000000243e-01 1.243999999999999967e-01 4.936900000000000177e-01 -5.910239999999999938e-01 6.589000000000000239e-03 2.405269999999999908e-01 -8.472399999999999376e-02 -4.968779999999999863e-01 -1.004202000000000039e+00 -4.956039999999999890e-01 -3.814420000000000033e-01 -1.377440000000000053e-01 9.411600000000000521e-02 -2.169099999999999917e-01 7.260680000000000467e-01 5.094119999999999759e-01 -2.643719999999999959e-01 -6.277999999999999726e-03 -9.876200000000000256e-02 8.543199999999999406e-02 9.146729999999999583e-01 6.503120000000000012e-01 5.899790000000000312e-01 7.410200000000000120e-02 -2.323490000000000000e-01 -6.674499999999999877e-02 1.765999999999999992e-03 1.744060000000000055e-01 3.508879999999999777e-01 2.276099999999999998e-02 -8.415000000000000258e-02 -3.264179999999999859e-01 4.847259999999999902e-01 -9.088340000000000307e-01 5.505499999999999977e-02
3.762070000000000136e-01 -4.251579999999999804e-01 -4.564529999999999976e-01 -2.393879999999999897e-01 6.954499999999999571e-02 -5.122539999999999871e-01 -1.986090000000000078e-01 -3.705240000000000200e-01 -7.546239999999999615e-01 -1.577570000000000083e-01 -8.940099999999999714e-01 2.504669999999999952e-01 5.469359999999999777e-01 1.058329999999999965e-01 1.022279999999999994e-01 3.115780000000000216e-01 1.961420000000000108e-01 9.685699999999999865e-02 -5.759360000000000035e-01 6.982810000000000406e-01 -3.864060000000000272e-01 -3.185500000000000137e-02 -6.321899999999999742e-02 1.285109999999999864e-01 -2.242969999999999964e-01 1.555231999999999948e+00 -4.248080000000000189e-01 2.608400000000000163e-01 1.019380000000000008e-01 1.481200000000000051e-02 8.798100000000000365e-02 2.516740000000000088e-01 5.693610000000000060e-01 7.928599999999999537e-02 -1.305109999999999881e-01 3.383530000000000149e-01 -2.861380000000000035e-01 -1.677579999999999905e-01 -5.702990000000000004e-01 5.574879999999999836e-01 4.432300000000000129e-02 6.860450000000000159e-01 -2.598880000000000079e-01 3.722000000000000048e-03 4.450430000000000219e-01 -3.390079999999999760e-01 -5.002360000000000140e-01 2.604879999999999973e-01 -2.502639999999999865e-01 3.829000000000000181e-01 -2.769789999999999752e-01 5.090209999999999457e-01 -5.045920000000000405e-01 -8.261400000000000687e-02 -2.834430000000000005e-01 -3.200640000000000152e-01 -1.743119999999999947e-01 1.172480000000000050e-01 -3.352000000000000118e-02 7.465859999999999719e-01
1.947810000000000097e-01 6.688600000000000101e-02 -1.050940999999999903e+00 1.376139999999999863e-01 4.493699999999999778e-02 -1.832799999999999985e-01 -5.609000000000000270e-03 8.516899999999999471e-02 -2.143499999999999919e-02 -8.138199999999999601e-02 -8.539199999999999569e-02 5.372500000000000053e-01 7.584729999999999528e-01 2.878510000000000235e-01 2.815889999999999782e-01 5.747090000000000254e-01 1.993850000000000067e-01 2.585540000000000060e-01 5.944599999999999884e-01 -2.125869999999999982e-01 4.644220000000000015e-01 -7.427310000000000301e-01 6.812599999999999767e-01 1.101010000000000044e-01 3.507649999999999935e-01 3.479099999999999970e-01 -9.668200000000000405e-02 3.453229999999999911e-01 -2.768800000000000081e-02 1.317429999999999990e-01 -4.172029999999999905e-01 -2.454800000000000038e-02 3.973260000000000125e-01 -7.590320000000000400e-01 -3.680849999999999955e-01 2.293699999999999906e-01 -4.059700000000000114e-02 5.180010000000000447e-01 8.531140000000000390e-01 2.318060000000000120e-01 -5.668239999999999945e-01 -3.504820000000000157e-01 3.270900000000000196e-02 3.878500000000000003e-02 -3.400279999999999969e-01 1.545239999999999947e-01 2.772609999999999797e-01 -5.262599999999999500e-01 -3.179529999999999856e-01 1.739850000000000008e-01 -6.067660000000000275e-01 1.454439999999999900e-01 -3.666389999999999927e-01 -2.620299999999999851e-01 -3.318220000000000058e-01 -7.701649999999999885e-01 1.273440000000000127e-01 -8.242789999999999839e-01 -2.995030000000000192e-01 4.709100000000000091e-02
2.982299999999999882e-02 9.540650000000000519e-01 1.893769999999999898e-01 -1.432930000000000037e-01 -2.436049999999999882e-01 4.645630000000000037e-01 -1.115389999999999993e-01 -2.915659999999999918e-01 9.146020000000000261e-01 -3.168529999999999958e-01 -3.679479999999999973e-01 -3.675269999999999926e-01 -8.861580000000000013e-01 4.154340000000000255e-01 -4.920499999999999874e-02 1.998409999999999909e-01 -4.513159999999999950e-01 2.865710000000000202e-01 3.425509999999999944e-01 -1.082103000000000037e+00 5.877409999999999579e-01 2.217639999999999889e-01 -5.469850000000000545e-01 4.718919999999999781e-01 3.216600000000000015e-02 1.056419999999999998e-01 4.531930000000000125e-01 2.814440000000000275e-01 8.282629999999999715e-01 -3.267099999999999865e-02 4.726369999999999738e-01 -5.659119999999999706e-01 -3.552679999999999727e-01 -5.648199999999999887e-01 -2.065399999999999875e-02 1.782509999999999928e-01 -4.604710000000000192e-01 3.408689999999999776e-01 -4.265360000000000262e-01 4.802029999999999910e-01 3.252539999999999876e-01 -6.723649999999999904e-01 -3.468820000000000237e-01 -5.737889999999999935e-01 -6.843299999999999939e-01 2.189190000000000025e-01 9.448929999999999829e-01 1.985969999999999958e-01 5.634320000000000439e-01 4.344600000000000128e-01 5.460089999999999666e-01 1.959519999999999873e-01 1.400909999999999933e-01 -4.022490000000000232e-01 -5.401199999999999751e-02 -1.792870000000000019e-01 -9.534829999999999695e-01 -1.547030000000000072e-01 -1.658060000000000089e-01 -3.471620000000000261e-01
4.390390000000000126e-01 2.001860000000000028e-01 9.561509999999999732e-01 -5.296089999999999964e-01 -6.442579999999999973e-01 -3.120600000000000110e-02 5.526550000000000074e-01 3.506119999999999792e-01 -2.391649999999999887e-01 7.543400000000000105e-02 -4.960699999999999832e-02 -3.003219999999999779e-01 -1.761929999999999885e-01 2.848660000000000081e-01 -5.043710000000000138e-01 1.825523000000000007e+00 6.529970000000000496e-01 5.160759999999999792e-01 4.226179999999999937e-01 8.159960000000000546e-01 2.372670000000000057e-01 -8.673910000000000231e-01 -7.580609999999999848e-01 -3.142989999999999950e-01 -5.426929999999999810e-01 5.314870000000000427e-01 -5.241649999999999920e-01 2.728349999999999942e-01 -2.561050000000000271e-01 5.574419999999999931e-01 -2.117499999999999938e-01 3.199139999999999762e-01 -2.461990000000000012e-01 1.204650000000000026e-01 -3.869639999999999747e-01 -2.795449999999999879e-01 -1.847109999999999863e-01 5.126709999999999878e-01 -8.725650000000000350e-01 7.352499999999999314e-02 -6.656119999999999814e-01 9.069000000000000672e-02 -4.398569999999999980e-01 -4.616859999999999853e-01 5.416619999999999768e-01 -6.773500000000000354e-02 -3.618839999999999835e-01 9.670900000000000329e-02 -1.838199999999999903e-02 4.407340000000000146e-01 -8.694499999999999451e-02 -6.048130000000000450e-01 -3.185339999999999838e-01 7.718829999999999858e-01 -6.921000000000000069e-03 -2.765090000000000048e-01 -4.573289999999999855e-01 -1.320389999999999897e-01 6.975599999999999856e-02 8.823300000000000587e-02
-9.459299999999999653e-02 -2.212499999999999883e-02 -2.580760000000000276e-01 2.156919999999999948e-01 -6.689799999999999913e-02 -2.390319999999999945e-01 -5.742439999999999767e-01 2.331640000000000101e-01 -8.886789999999999967e-01 -1.188099999999999920e-02 1.345200000000000007e-01 -6.473050000000000193e-01 3.726209999999999800e-01 -3.180200000000000249e-01 2.495670000000000111e-01 6.138909999999999645e-01 -1.515450000000000130e-01 8.075750000000000428e-01 -2.777819999999999734e-01 -1.017720000000000014e-01 7.275049999999999573e-01 8.117259999999999476e-01 1.182360000000000078e+00 8.243390000000000439e-01 -3.513350000000000084e-01 -8.118100000000000316e-02 2.595589999999999842e-01 2.167509999999999992e-01 -7.342830000000000190e-01 1.996920000000000084e-01 6.032170000000000032e-01 4.722770000000000024e-01 1.109679999999999972e-01 -4.526899999999999674e-02 3.183699999999999725e-02 -1.606609999999999983e-01 -1.714800000000000005e-02 -2.642619999999999969e-01 3.594200000000000172e-01 -9.615500000000000436e-02 7.675400000000000000e-01 -3.485699999999999910e-01 -6.025730000000000253e-01 -3.480429999999999913e-01 1.768109999999999959e-01 4.600339999999999985e-01 3.281549999999999745e-01 6.572289999999999521e-01 1.436659999999999882e-01 -2.904300000000000215e-01 4.463899999999999813e-02 -2.903899999999999884e-02 -1.627190000000000025e-01 -7.591520000000000490e-01 -1.273242999999999903e+00 -5.782410000000000050e-01 -1.425993000000000066e+00 -6.433800000000000630e-02 -3.033500000000000085e-02 3.101650000000000240e-01
2.161899999999999933e-01 -5.352639999999999620e-01 -7.951660000000000394e-01 2.720600000000000102e-02 -2.439999999999999949e-04 1.011940000000000062e-01 -5.322000000000000342e-03 4.481799999999999673e-02 -5.966280000000000472e-01 -1.472299999999999998e-02 -8.656999999999999765e-03 -5.344480000000000341e-01 7.437900000000000067e-02 -2.366399999999999892e-01 -2.080210000000000115e-01 -6.479799999999999449e-02 -4.949999999999999973e-04 -4.552149999999999808e-01 2.066359999999999864e-01 -1.636050000000000004e-01 1.030449999999999977e-01 3.600099999999999828e-02 1.888289999999999969e-01 -6.964820000000000455e-01 -1.909929999999999961e-01 3.289329999999999754e-01 1.404720000000000135e-01 -5.985900000000000248e-02 -1.729569999999999996e-01 -6.962200000000000333e-02 -1.360659999999999925e-01 2.340700000000000072e-02 1.719189999999999885e-01 1.269889999999999908e-01 3.440349999999999797e-01 -1.031969999999999971e-01 -1.088370000000000032e-01 -2.272999999999999847e-03 -2.869999999999999830e-04 -1.065539999999999959e-01 -2.131689999999999974e-01 4.984560000000000102e-01 -1.215900000000000036e-01 3.893420000000000214e-01 3.015610000000000235e-01 2.008020000000000083e-01 2.252069999999999905e-01 1.004261000000000070e+00 5.551779999999999493e-01 8.314799999999999969e-01 8.263129999999999642e-01 -2.065009999999999901e-01 6.364000000000000212e-02 -4.072699999999999931e-02 3.895109999999999961e-01 -1.916640000000000010e-01 -1.823170000000000068e-01 -8.176480000000000414e-01 -9.147229999999999528e-01 5.348889999999999478e-01
4.506149999999999878e-01 4.445470000000000255e-01 -2.521280000000000188e-01 -4.713689999999999825e-01 1.912470000000000003e-01 5.575179999999999580e-01 -1.923999999999999877e-01 -9.316440000000000277e-01 -2.346949999999999870e-01 -3.291169999999999929e-01 -1.188706999999999958e+00 1.293455999999999939e+00 4.348270000000000191e-01 -3.787670000000000203e-01 -6.082159999999999789e-01 -5.959579999999999878e-01 9.871889999999999832e-01 -1.277894000000000085e+00 1.249880000000000019e-01 -2.593960000000000155e-01 -5.263889999999999958e-01 -2.412860000000000005e-01 2.069550000000000001e-01 -6.084370000000000056e-01 1.366500000000000006e-02 1.331409999999999982e+00 -1.773200000000000054e-01 4.595819999999999905e-01 2.169959999999999944e-01 9.096999999999999531e-02 -2.455320000000000003e-01 5.931039999999999646e-01 5.251510000000000344e-01 2.921799999999999953e-01 -7.467340000000000089e-01 1.811000000000000110e-02 3.251339999999999786e-01 2.490479999999999916e-01 -3.218920000000000115e-01 -9.671200000000000629e-02 -6.942139999999999977e-01 -1.142168999999999990e+00 -4.097689999999999944e-01 2.568219999999999947e-01 -8.431700000000000306e-02 -3.376049999999999884e-01 6.192940000000000111e-01 -1.115389999999999993e-01 6.714029999999999720e-01 -2.280409999999999937e-01 1.089596999999999927e+00 -4.803509999999999724e-01 -1.155309999999999948e-01 8.734480000000000022e-01 7.283809999999999452e-01 5.230200000000000127e-02 5.945299999999999890e-02 -1.006770000000000026e-01 -6.058810000000000029e-01 8.372939999999999827e-01
3.834879999999999955e-01 1.038889999999999952e-01 -2.260369999999999879e-01 1.270880000000000065e-01 6.688809999999999478e-01 -3.356580000000000119e-01 -1.730970000000000009e-01 1.836899999999999922e-01 1.315989999999999938e-01 1.737200000000000133e-01 1.405000000000000138e-01 -2.808780000000000165e-01 2.548800000000000024e-02 -1.069190000000000085e+00 1.702100000000000141e-02 -2.305949999999999944e-01 -3.678259999999999863e-01 1.462559999999999971e-01 -5.020529999999999715e-01 -1.959750000000000103e-01 3.555719999999999992e-01 -6.134899999999999798e-01 -2.856259999999999910e-01 4.178450000000000220e-01 -2.129900000000000126e-01 1.562600000000000100e-02 1.102900000000000061e-02 -2.081679999999999919e-01 -6.318209999999999660e-01 -2.740890000000000271e-01 -1.476399999999999935e-01 -2.435430000000000095e-01 5.900600000000000289e-02 -7.808600000000000263e-02 -2.596229999999999927e-01 -4.547140000000000071e-01 -1.312999999999999931e-02 -2.806600000000000067e-02 4.226030000000000064e-01 2.214270000000000127e-01 8.448200000000000154e-02 6.361480000000000468e-01 5.953000000000000513e-01 4.199160000000000115e-01 -1.259560000000000124e-01 1.060529999999999945e-01 7.150330000000000297e-01 -1.373399999999999899e-01 5.015840000000000298e-01 4.345539999999999958e-01 1.666499999999999926e-01 -1.995629999999999904e-01 1.455210000000000115e-01 -1.692859999999999920e-01 -3.689699999999999924e-02 8.219999999999999529e-02 -1.748149999999999982e-01 2.815630000000000077e-01 8.737699999999999634e-02 -1.849550000000000083e-01
1.763230000000000075e-01 4.233870000000000133e-01 8.750869999999999482e-01 -6.885480000000000489e-01 -6.170989999999999531e-01 -5.947689999999999921e-01 1.704600000000000004e-01 5.743139999999999912e-01 -5.922009999999999774e-01 5.294219999999999482e-01 4.196099999999999830e-02 3.618640000000000190e-01 -1.379809000000000063e+00 -1.583541000000000087e+00 -3.129850000000000132e-01 -1.004871999999999987e+00 -4.901249999999999774e-01 1.895699999999999885e-01 6.043629999999999836e-01 -6.891909999999999981e-01 7.570210000000000550e-01 5.054959999999999454e-01 1.512696999999999958e+00 -1.557890000000000108e-01 -1.196148999999999907e+00 -5.999889999999999946e-01 -1.355359999999999898e-01 6.119989999999999597e-01 -1.192440000000000028e-01 1.147589999999999999e-01 1.291210000000000135e-01 1.146029999999999965e-01 -2.393790000000000084e-01 2.979589999999999739e-01 1.147520000000000068e-01 1.626800000000000121e-02 2.813419999999999810e-01 1.476664999999999894e+00 -1.173376999999999892e+00 1.980020000000000113e-01 1.563670000000000060e-01 9.244229999999999947e-01 -2.425100000000000033e-01 -9.258800000000000363e-02 5.008930000000000327e-01 -4.242499999999999744e-02 6.809819999999999762e-01 3.203619999999999801e-01 -8.597439999999999527e-01 -8.695530000000000204e-01 -1.516869999999999885e-01 1.017517000000000005e+00 -1.148880000000000040e-01 -3.718409999999999771e-01 1.281441999999999970e+00 -1.144010000000000027e-01 -5.394879999999999676e-01 -3.893880000000000119e-01 1.948910000000000087e-01 2.068029999999999868e-01
-6.597800000000000331e-01 -2.684900000000000064e-01 5.659619999999999651e-01 -1.470809999999999895e-01 2.188430000000000097e-01 -3.643190000000000039e-01 2.386119999999999908e-01 5.300589999999999469e-01 -4.917770000000000197e-01 5.733810000000000295e-01 4.173680000000000168e-01 3.763020000000000254e-01 -6.818180000000000351e-01 -3.772650000000000170e-01 -2.266819999999999946e-01 -4.709180000000000033e-01 1.072999999999999995e-02 -3.895129999999999981e-01 -1.811669999999999947e-01 3.550690000000000235e-01 -1.947480000000000044e-01 1.215058999999999889e+00 8.373600000000000487e-02 3.936049999999999827e-01 1.140810000000000018e-01 8.666100000000000192e-02 1.396350000000000091e-01 -2.682410000000000072e-01 -4.127199999999999758e-01 -4.880639999999999978e-01 3.582250000000000156e-01 -6.043239999999999723e-01 -4.069749999999999757e-01 -4.463090000000000113e-01 3.185299999999999937e-02 -5.012799999999999478e-01 5.708180000000000476e-01 3.901310000000000056e-01 -4.929600000000000093e-01 3.954770000000000230e-01 1.712249999999999883e-01 6.340700000000000225e-01 1.448440000000000005e-01 -3.095260000000000233e-01 8.301009999999999778e-01 3.282950000000000035e-01 1.082570000000000060e-01 3.748480000000000145e-01 -3.310290000000000177e-01 -5.683080000000000354e-01 2.648490000000000011e-01 -5.365499999999999714e-01 1.402259999999999895e-01 3.119299999999999851e-02 5.087040000000000450e-01 -3.242099999999999982e-01 2.173400000000000054e-01 -7.246029999999999971e-01 3.206869999999999998e-01 -2.715870000000000228e-01
8.558459999999999956e-01 -5.155220000000000358e-01 -6.706020000000000314e-01 1.774459999999999926e-01 -7.659699999999999842e-02 -7.842029999999999834e-01 -7.346380000000000132e-01 -4.141139999999999821e-01 8.167839999999999545e-01 2.138980000000000048e-01 -7.450189999999999868e-01 -7.669949999999999823e-01 -4.979060000000000152e-01 8.920719999999999761e-01 3.978799999999999698e-02 -1.727599999999999969e-01 -3.418419999999999792e-01 -3.900069999999999926e-01 -5.988750000000000462e-01 -8.008779999999999788e-01 2.437179999999999902e-01 -6.443719999999999448e-01 7.243699999999999584e-01 1.721209999999999962e-01 3.507359999999999922e-01 6.201399999999999968e-02 -6.409610000000000030e-01 5.285009999999999986e-01 1.197067000000000103e+00 3.593569999999999820e-01 -9.088349999999999485e-01 -5.532719999999999860e-01 6.740819999999999590e-01 -8.073099999999999721e-01 3.143909999999999760e-01 -1.340079999999999882e-01 8.952200000000000157e-01 -3.592700000000000060e-02 8.722339999999999538e-01 -9.140430000000000499e-01 4.427699999999999969e-01 3.113199999999999995e-02 1.068759999999999932e+00 7.459120000000000195e-01 -3.287260000000000182e-01 6.714219999999999633e-01 -5.949400000000000244e-01 5.379239999999999577e-01 8.651640000000000441e-01 3.279920000000000058e-01 1.246570000000000039e-01 6.896670000000000300e-01 2.793169999999999820e-01 -6.801209999999999756e-01 -4.046890000000000209e-01 -6.587150000000000505e-01 2.256289999999999962e-01 -6.332330000000000458e-01 -2.490779999999999939e-01 2.981980000000000186e-01
-7.421299999999999564e-01 -7.485700000000000687e-02 2.520370000000000110e-01 -4.552880000000000260e-01 -1.065569999999999989e-01 -9.623129999999999740e-01 1.115995000000000070e+00 6.425619999999999665e-01 7.247999999999999998e-01 -4.164189999999999836e-01 4.910900000000000265e-01 -5.096699999999999842e-02 2.614150000000000085e-01 9.359099999999999364e-02 8.078399999999999470e-02 -1.557070000000000121e-01 7.020380000000000509e-01 -3.114319999999999866e-01 -3.708069999999999977e-01 -8.831999999999999573e-03 2.307790000000000119e-01 -2.113470000000000071e-01 4.072930000000000161e-01 3.877979999999999761e-01 2.929320000000000257e-01 -4.088890000000000025e-01 3.847769999999999802e-01 8.109439999999999982e-01 1.822010000000000018e-01 -2.646749999999999936e-01 -8.639379999999999837e-01 -7.817009999999999792e-01 -4.274979999999999891e-01 1.257139999999999924e-01 1.088100000000000005e-02 -4.835459999999999758e-01 5.338159999999999572e-01 -8.524299999999999933e-02 -1.907520000000000049e-01 -2.485940000000000094e-01 2.601140000000000119e-01 1.282569000000000070e+00 1.006380000000000052e-01 -6.870650000000000368e-01 5.071200000000000013e-02 -1.840090000000000059e-01 2.459069999999999867e-01 6.834400000000000197e-02 -9.485699999999999688e-02 -3.737019999999999786e-01 -3.408479999999999843e-01 1.057158000000000042e+00 -1.828899999999999970e-02 -3.929000000000000201e-03 -5.311479999999999535e-01 -7.169619999999999882e-01 1.005849999999999939e-01 -2.436699999999999977e-02 2.264200000000000101e-01 -5.272240000000000260e-01
5.564550000000000329e-01 3.051010000000000111e-01 -6.385499999999999510e-01 2.849659999999999971e-01 7.984199999999999631e-02 6.560000000000000076e-04 1.703729999999999967e-01 1.451729999999999965e-01 -1.422515999999999892e+00 -3.006289999999999796e-01 8.236799999999999677e-02 -3.962860000000000271e-01 -1.496560000000000112e-01 1.747849999999999959e-01 -8.854459999999999553e-01 -5.890069999999999473e-01 -5.182699999999999807e-02 3.878500000000000003e-02 -8.084949999999999637e-01 -9.136589999999999989e-01 3.189250000000000140e-01 3.173070000000000057e-01 -1.405790000000000095e-01 -4.199999999999999768e-05 -5.004619999999999624e-01 -3.384179999999999966e-01 2.200870000000000049e-01 2.133780000000000121e-01 -7.791299999999999615e-02 7.279320000000000235e-01 -4.830760000000000054e-01 -4.885320000000000218e-01 1.654210000000000125e-01 1.388389999999999902e-01 1.712460000000000093e-01 4.150349999999999873e-01 2.497880000000000100e-01 2.618449999999999944e-01 4.022919999999999829e-01 -4.505730000000000013e-01 2.651240000000000263e-01 -4.650279999999999969e-01 1.073517999999999972e+00 7.867140000000000244e-01 1.060383000000000076e+00 1.254089999999999927e-01 -1.985619999999999885e-01 4.064500000000000057e-02 4.013100000000000001e-02 -1.399459999999999871e-01 3.593390000000000195e-01 6.591219999999999857e-01 -6.325830000000000064e-01 -8.552800000000000680e-02 2.084679999999999866e-01 7.277630000000000488e-01 -1.215190000000000020e-01 -7.558540000000000258e-01 -1.794300000000000062e-02 2.654139999999999833e-01