7.641514273000000301e+00 0.000000000000000000e+00 0.000000000000000000e+00 -3.760096107999999937e+00 6.633905319000000134e+00 0.000000000000000000e+00 -3.438666229999999824e-01 3.996205250000000042e-01 2.087515907799999937e+01
7.496107714999999949e+00 0.000000000000000000e+00 0.000000000000000000e+00 -3.688547117999999791e+00 6.507672048999999959e+00 0.000000000000000000e+00 -3.373233569999999903e-01 3.920163460000000155e-01 2.047793610300000111e+01
7.506707369999999990e+00 0.000000000000000000e+00 0.000000000000000000e+00 -3.693762802000000178e+00 6.516874034999999843e+00 0.000000000000000000e+00 -3.378003399999999767e-01 3.925706649999999853e-01 2.050689234000000027e+01
7.424651815999999904e+00 0.000000000000000000e+00 0.000000000000000000e+00 -3.794618209999999880e+00 6.333084321000000294e+00 0.000000000000000000e+00 2.781818399999999927e-02 1.573333879999999907e-01 2.029966291399999889e+01
7.410741679000000026e+00 0.000000000000000000e+00 0.000000000000000000e+00 -3.646541764999999824e+00 6.433562366000000310e+00 0.000000000000000000e+00 -3.334819030000000240e-01 3.875520450000000117e-01 2.024473237899999845e+01
7.566250998000000116e+00 0.000000000000000000e+00 0.000000000000000000e+00 -3.723061937000000210e+00 6.568566248999999857e+00 0.000000000000000000e+00 -3.404797909999999761e-01 3.956845580000000195e-01 2.066955416900000131e+01
7.613798397000000051e+00 0.000000000000000000e+00 0.000000000000000000e+00 -3.891287935999999892e+00 6.494422694999999912e+00 0.000000000000000000e+00 2.852686499999999847e-02 1.613415320000000097e-01 2.081680660399999994e+01
7.435705139999999602e+00 0.000000000000000000e+00 0.000000000000000000e+00 -3.789318592999999957e+00 6.502809627999999620e+00 0.000000000000000000e+00 1.359278660000000083e-01 7.867691799999999847e-02 2.003392162600000148e+01
7.395928836000000395e+00 0.000000000000000000e+00 0.000000000000000000e+00 -3.639252933999999939e+00 6.420702742999999657e+00 0.000000000000000000e+00 -3.328153280000000214e-01 3.867773930000000249e-01 2.020426652000000090e+01
7.173720653000000169e+00 0.000000000000000000e+00 0.000000000000000000e+00 -3.702022087000000017e+00 6.330262528000000444e+00 0.000000000000000000e+00 -3.400165199999999888e-01 -4.093892920000000157e-01 1.936490327399999956e+01
7.794831209999999899e+00 0.000000000000000000e+00 0.000000000000000000e+00 -3.835537492999999909e+00 6.767005906999999709e+00 0.000000000000000000e+00 -3.507658550000000153e-01 4.076383860000000192e-01 2.129399169699999916e+01
7.560870587000000143e+00 0.000000000000000000e+00 0.000000000000000000e+00 -3.654874608000000080e+00 6.351064122000000367e+00 0.000000000000000000e+00 2.824745000000000172e-01 -4.512818410000000169e-01 1.948023404199999931e+01
7.432086344000000011e+00 0.000000000000000000e+00 0.000000000000000000e+00 -3.787474414000000067e+00 6.499644852000000306e+00 0.000000000000000000e+00 1.358617129999999951e-01 7.863862800000000208e-02 2.002417155199999854e+01
7.782434141000000416e+00 0.000000000000000000e+00 0.000000000000000000e+00 -3.829437371000000034e+00 6.756243515000000421e+00 0.000000000000000000e+00 -3.502079889999999973e-01 4.069900690000000099e-01 2.126012527199999980e+01
7.617847080999999854e+00 0.000000000000000000e+00 0.000000000000000000e+00 -3.748450390999999993e+00 6.613358879999999829e+00 0.000000000000000000e+00 -3.428016039999999820e-01 3.983828260000000232e-01 2.081050482399999879e+01
7.594727491999999636e+00 0.000000000000000000e+00 0.000000000000000000e+00 -3.671240811000000104e+00 6.379503620999999569e+00 0.000000000000000000e+00 2.837393959999999771e-01 -4.533026410000000062e-01 1.956746479299999919e+01
7.448528829999999878e+00 0.000000000000000000e+00 0.000000000000000000e+00 -3.665135373000000030e+00 6.466366909000000440e+00 0.000000000000000000e+00 -3.351823170000000074e-01 3.895281609999999839e-01 2.034795966800000144e+01
7.720442466999999809e+00 0.000000000000000000e+00 0.000000000000000000e+00 -3.732010595000000208e+00 6.485103084000000351e+00 0.000000000000000000e+00 2.884361129999999940e-01 -4.608061270000000098e-01 1.989136362500000033e+01
7.383951438999999617e+00 0.000000000000000000e+00 0.000000000000000000e+00 -3.762944328000000116e+00 6.457549028999999940e+00 0.000000000000000000e+00 1.349817869999999920e-01 7.812931400000000526e-02 1.989448231700000136e+01
7.331613024000000145e+00 0.000000000000000000e+00 0.000000000000000000e+00 -3.747067604000000163e+00 6.253724032000000044e+00 0.000000000000000000e+00 2.746959200000000101e-02 1.553618330000000047e-01 2.004528652600000171e+01
7.524298354999999994e+00 0.000000000000000000e+00 0.000000000000000000e+00 -3.845545927999999947e+00 6.418080890999999788e+00 0.000000000000000000e+00 2.819153199999999831e-02 1.594449659999999935e-01 2.057210547600000083e+01
7.675110464000000299e+00 0.000000000000000000e+00 0.000000000000000000e+00 -3.710097406000000042e+00 6.447024604000000103e+00 0.000000000000000000e+00 2.867425080000000071e-01 -4.581004189999999809e-01 1.977456781200000080e+01
7.583121428000000108e+00 0.000000000000000000e+00 0.000000000000000000e+00 -3.731363228999999837e+00 6.583212146000000153e+00 0.000000000000000000e+00 -3.412389570000000094e-01 3.965668139999999897e-01 2.071564096499999863e+01
7.461895776000000424e+00 0.000000000000000000e+00 0.000000000000000000e+00 -3.671712734999999839e+00 6.477971291000000242e+00 0.000000000000000000e+00 -3.357838269999999792e-01 3.902271990000000246e-01 2.038447561299999933e+01
7.531692583999999968e+00 0.000000000000000000e+00 0.000000000000000000e+00 -3.838234868999999883e+00 6.586754333000000017e+00 0.000000000000000000e+00 1.376825580000000104e-01 7.969255799999999668e-02 2.029253932199999966e+01
7.533297057000000407e+00 0.000000000000000000e+00 0.000000000000000000e+00 -3.706846566999999926e+00 6.539957610000000088e+00 0.000000000000000000e+00 -3.389968700000000057e-01 3.939611989999999841e-01 2.057953029100000109e+01
7.536362755999999941e+00 0.000000000000000000e+00 0.000000000000000000e+00 -3.708355078999999943e+00 6.542619066000000316e+00 0.000000000000000000e+00 -3.391348260000000003e-01 3.941215229999999736e-01 2.058790519400000107e+01
7.352418723000000433e+00 0.000000000000000000e+00 0.000000000000000000e+00 -3.757701056999999789e+00 6.271470890999999881e+00 0.000000000000000000e+00 2.754754499999999967e-02 1.558027200000000057e-01 2.010217117199999848e+01
7.466152618999999824e+00 0.000000000000000000e+00 0.000000000000000000e+00 -3.609088572000000106e+00 6.271501870999999895e+00 0.000000000000000000e+00 2.789358319999999947e-01 -4.456284580000000051e-01 1.923619756900000155e+01
7.456467562000000271e+00 0.000000000000000000e+00 0.000000000000000000e+00 -3.669041717999999896e+00 6.473258839999999736e+00 0.000000000000000000e+00 -3.355395580000000155e-01 3.899433250000000073e-01 2.036964676699999899e+01
7.478270217000000386e+00 0.000000000000000000e+00 0.000000000000000000e+00 -3.717020338000000201e+00 6.509544915000000209e+00 0.000000000000000000e+00 4.823000000000000240e-06 -3.654000000000000082e-06 2.038280512300000069e+01
7.595683389000000396e+00 0.000000000000000000e+00 0.000000000000000000e+00 -3.882029651999999942e+00 6.478970944000000287e+00 0.000000000000000000e+00 2.845899299999999840e-02 1.609576630000000008e-01 2.076727855200000050e+01
7.633351406000000061e+00 0.000000000000000000e+00 0.000000000000000000e+00 -3.756079473999999863e+00 6.626818806000000173e+00 0.000000000000000000e+00 -3.434992960000000095e-01 3.991936400000000162e-01 2.085285968100000176e+01
7.456674165999999992e+00 0.000000000000000000e+00 0.000000000000000000e+00 -3.706286176999999959e+00 6.490746387999999811e+00 0.000000000000000000e+00 4.809000000000000035e-06 -3.644000000000000178e-06 2.032394283500000043e+01
7.425527905000000040e+00 0.000000000000000000e+00 0.000000000000000000e+00 -3.795065965000000041e+00 6.333831607999999669e+00 0.000000000000000000e+00 2.782146599999999956e-02 1.573519529999999889e-01 2.030205821999999927e+01
7.477705245000000112e+00 0.000000000000000000e+00 0.000000000000000000e+00 -3.810722317000000192e+00 6.539540331999999623e+00 0.000000000000000000e+00 1.366956460000000040e-01 7.912131999999999499e-02 2.014708195100000054e+01
7.584833147000000331e+00 0.000000000000000000e+00 0.000000000000000000e+00 -3.769986675000000176e+00 6.602303822999999738e+00 0.000000000000000000e+00 4.891000000000000267e-06 -3.706000000000000177e-06 2.067325349800000112e+01
7.501754068000000331e+00 0.000000000000000000e+00 0.000000000000000000e+00 -3.871304807000000014e+00 6.619727053000000083e+00 0.000000000000000000e+00 -3.555644889999999836e-01 -4.281094759999999888e-01 2.025040407099999840e+01
7.809431488000000421e+00 0.000000000000000000e+00 0.000000000000000000e+00 -3.842721730000000058e+00 6.779680994999999655e+00 0.000000000000000000e+00 -3.514228649999999732e-01 4.084019219999999728e-01 2.133387687200000116e+01
7.474552890000000005e+00 0.000000000000000000e+00 0.000000000000000000e+00 -3.677940814999999919e+00 6.488959440000000356e+00 0.000000000000000000e+00 -3.363533940000000277e-01 3.908891150000000092e-01 2.041905243500000111e+01
7.514411391000000329e+00 0.000000000000000000e+00 0.000000000000000000e+00 -3.697553655000000106e+00 6.523562205000000169e+00 0.000000000000000000e+00 -3.381470189999999931e-01 3.929735549999999744e-01 2.052793825499999869e+01
7.522945595999999568e+00 0.000000000000000000e+00 0.000000000000000000e+00 -3.701753010000000010e+00 6.530971090999999618e+00 0.000000000000000000e+00 -3.385310570000000241e-01 3.934198589999999829e-01 2.055125207500000073e+01
7.488011711999999598e+00 0.000000000000000000e+00 0.000000000000000000e+00 -3.619655111999999786e+00 6.289863314999999844e+00 0.000000000000000000e+00 2.797524889999999931e-01 -4.469331509999999730e-01 1.929251651399999901e+01
7.660880549999999900e+00 0.000000000000000000e+00 0.000000000000000000e+00 -3.703218759999999943e+00 6.435071601999999835e+00 0.000000000000000000e+00 2.862108769999999747e-01 -4.572510850000000016e-01 1.973790509399999848e+01
7.520529519000000107e+00 0.000000000000000000e+00 0.000000000000000000e+00 -3.738025019999999810e+00 6.546330002000000370e+00 0.000000000000000000e+00 4.850000000000000151e-06 -3.674999999999999966e-06 2.049798725699999835e+01
7.657462354999999832e+00 0.000000000000000000e+00 0.000000000000000000e+00 -3.767943547999999865e+00 6.647750489999999957e+00 0.000000000000000000e+00 -3.445842840000000185e-01 4.004545460000000223e-01 2.091872619500000141e+01
7.478261359000000219e+00 0.000000000000000000e+00 0.000000000000000000e+00 -3.679765610000000020e+00 6.492178910999999886e+00 0.000000000000000000e+00 -3.365202749999999798e-01 3.910830530000000138e-01 2.042918326499999893e+01
7.527939963999999762e+00 0.000000000000000000e+00 0.000000000000000000e+00 -3.704210546000000104e+00 6.535306902000000306e+00 0.000000000000000000e+00 -3.387558019999999948e-01 3.936810450000000072e-01 2.056489573300000018e+01
7.469737209999999905e+00 0.000000000000000000e+00 0.000000000000000000e+00 -3.675571203000000065e+00 6.484778753999999701e+00 0.000000000000000000e+00 -3.361366900000000157e-01 3.906372739999999788e-01 2.040589691399999950e+01
7.724357792000000167e+00 0.000000000000000000e+00 0.000000000000000000e+00 -3.733903236999999820e+00 6.488391921999999923e+00 0.000000000000000000e+00 2.885823900000000219e-01 -4.610398190000000174e-01 1.990145127799999969e+01
7.425647312999999805e+00 0.000000000000000000e+00 0.000000000000000000e+00 -3.653876256000000211e+00 6.446502545999999612e+00 0.000000000000000000e+00 -3.341526530000000217e-01 3.883315500000000253e-01 2.028545172899999827e+01
7.438152367999999903e+00 0.000000000000000000e+00 0.000000000000000000e+00 -3.660029514000000095e+00 6.457358684999999987e+00 0.000000000000000000e+00 -3.347153780000000078e-01 3.889855139999999767e-01 2.031961315199999873e+01
7.436409437000000011e+00 0.000000000000000000e+00 0.000000000000000000e+00 -3.659171885000000124e+00 6.455845576999999835e+00 0.000000000000000000e+00 -3.346369470000000179e-01 3.888943659999999913e-01 2.031485179699999932e+01
7.470931239999999640e+00 0.000000000000000000e+00 0.000000000000000000e+00 -3.713372553000000131e+00 6.503156619000000305e+00 0.000000000000000000e+00 4.818000000000000288e-06 -3.650999999999999857e-06 2.036280197600000008e+01
7.467437846000000157e+00 0.000000000000000000e+00 0.000000000000000000e+00 -3.711636185999999782e+00 6.500115755000000384e+00 0.000000000000000000e+00 4.816000000000000138e-06 -3.649000000000000130e-06 2.035328036699999998e+01
7.561917530999999748e+00 0.000000000000000000e+00 0.000000000000000000e+00 -3.655380694000000208e+00 6.351943546000000218e+00 0.000000000000000000e+00 2.825136140000000240e-01 -4.513443300000000158e-01 1.948293144499999840e+01
7.662345765000000419e+00 0.000000000000000000e+00 0.000000000000000000e+00 -3.770346486000000219e+00 6.651989974000000139e+00 0.000000000000000000e+00 -3.448040359999999804e-01 4.007099290000000202e-01 2.093206673899999970e+01
7.554563135999999623e+00 0.000000000000000000e+00 0.000000000000000000e+00 -3.849889958999999973e+00 6.606755507999999999e+00 0.000000000000000000e+00 1.381006409999999962e-01 7.993454999999999311e-02 2.035415914600000065e+01
7.594429941999999656e+00 0.000000000000000000e+00 0.000000000000000000e+00 -3.736927714000000122e+00 6.593029521000000059e+00 0.000000000000000000e+00 -3.417478380000000260e-01 3.971582040000000147e-01 2.074653366700000134e+01
7.493486454000000130e+00 0.000000000000000000e+00 0.000000000000000000e+00 -3.687257295999999851e+00 6.505396426999999981e+00 0.000000000000000000e+00 -3.372054010000000157e-01 3.918792640000000049e-01 2.047077531900000125e+01
7.546048261000000146e+00 0.000000000000000000e+00 0.000000000000000000e+00 -3.713120945000000006e+00 6.551027441999999645e+00 0.000000000000000000e+00 -3.395706720000000178e-01 3.946280360000000154e-01 2.061436414699999986e+01
7.513814391999999565e+00 0.000000000000000000e+00 0.000000000000000000e+00 -3.734687314999999952e+00 6.540484743999999573e+00 0.000000000000000000e+00 4.845999999999999851e-06 -3.672000000000000164e-06 2.047968447799999936e+01
7.505395517000000183e+00 0.000000000000000000e+00 0.000000000000000000e+00 -3.693117288999999914e+00 6.515735163000000441e+00 0.000000000000000000e+00 -3.377413060000000189e-01 3.925020610000000132e-01 2.050330860800000110e+01
7.521241523999999679e+00 0.000000000000000000e+00 0.000000000000000000e+00 -3.843983630999999956e+00 6.415473472999999593e+00 0.000000000000000000e+00 2.818007900000000024e-02 1.593801890000000054e-01 2.056374782500000009e+01
7.493915893999999689e+00 0.000000000000000000e+00 0.000000000000000000e+00 -3.818983445000000199e+00 6.553717167000000288e+00 0.000000000000000000e+00 1.369919840000000111e-01 7.929284400000000121e-02 2.019075808799999905e+01
7.597252290000000130e+00 0.000000000000000000e+00 0.000000000000000000e+00 -3.738316483999999829e+00 6.595479714999999743e+00 0.000000000000000000e+00 -3.418748429999999838e-01 3.973058010000000140e-01 2.075424378599999997e+01
7.579558249999999830e+00 0.000000000000000000e+00 0.000000000000000000e+00 -3.729609925000000104e+00 6.580118807999999930e+00 0.000000000000000000e+00 -3.410786149999999739e-01 3.963804739999999827e-01 2.070590704199999976e+01
7.488666339999999977e+00 0.000000000000000000e+00 0.000000000000000000e+00 -3.684885502000000201e+00 6.501211892999999797e+00 0.000000000000000000e+00 -3.369884969999999980e-01 3.916271920000000129e-01 2.045760768699999943e+01
7.367905984000000075e+00 0.000000000000000000e+00 0.000000000000000000e+00 -3.765616343000000033e+00 6.284681224999999927e+00 0.000000000000000000e+00 2.760557199999999836e-02 1.561309060000000137e-01 2.014451472900000084e+01
7.507296882000000338e+00 0.000000000000000000e+00 0.000000000000000000e+00 -3.731447832999999825e+00 6.534811503000000243e+00 0.000000000000000000e+00 4.840999999999999898e-06 -3.668999999999999939e-06 2.046192032400000116e+01
7.496022768999999641e+00 0.000000000000000000e+00 0.000000000000000000e+00 -3.820057132000000077e+00 6.555559709999999818e+00 0.000000000000000000e+00 1.370304980000000006e-01 7.931513699999999389e-02 2.019643461300000098e+01
7.324695453000000356e+00 0.000000000000000000e+00 0.000000000000000000e+00 -3.743532146000000171e+00 6.247823477999999930e+00 0.000000000000000000e+00 2.744367400000000123e-02 1.552152450000000017e-01 2.002637326800000039e+01
7.551593783000000393e+00 0.000000000000000000e+00 0.000000000000000000e+00 -3.715849684000000153e+00 6.555841732000000199e+00 0.000000000000000000e+00 -3.398202189999999789e-01 3.949180440000000236e-01 2.062951345400000136e+01
7.247134961000000430e+00 0.000000000000000000e+00 0.000000000000000000e+00 -3.602136224000000109e+00 6.308350616000000244e+00 0.000000000000000000e+00 4.673999999999999634e-06 -3.541000000000000063e-06 1.975282188499999947e+01
7.829233789999999971e+00 0.000000000000000000e+00 0.000000000000000000e+00 -3.852465683000000141e+00 6.796872169000000241e+00 0.000000000000000000e+00 -3.523139639999999795e-01 4.094375020000000087e-01 2.138797298400000102e+01
7.478146336000000005e+00 0.000000000000000000e+00 0.000000000000000000e+00 -3.716958764000000137e+00 6.509437080999999736e+00 0.000000000000000000e+00 4.823000000000000240e-06 -3.654000000000000082e-06 2.038246747299999839e+01
7.427257542000000434e+00 0.000000000000000000e+00 0.000000000000000000e+00 -3.795949954000000126e+00 6.335306956000000156e+00 0.000000000000000000e+00 2.782794599999999924e-02 1.573886049999999870e-01 2.030678720399999904e+01
7.439683684000000241e+00 0.000000000000000000e+00 0.000000000000000000e+00 -3.697841180000000172e+00 6.475956831000000413e+00 0.000000000000000000e+00 4.797999999999999633e-06 -3.636000000000000001e-06 2.027763350500000072e+01
7.561056796999999996e+00 0.000000000000000000e+00 0.000000000000000000e+00 -3.720506069999999887e+00 6.564056953999999777e+00 0.000000000000000000e+00 -3.402460529999999927e-01 3.954129220000000000e-01 2.065536460399999896e+01
7.502083822000000346e+00 0.000000000000000000e+00 0.000000000000000000e+00 -3.691487731000000050e+00 6.512860146999999600e+00 0.000000000000000000e+00 -3.375922809999999941e-01 3.923288719999999952e-01 2.049426168800000170e+01
7.623979182000000243e+00 0.000000000000000000e+00 0.000000000000000000e+00 -3.896491168999999921e+00 6.503106706999999709e+00 0.000000000000000000e+00 2.856500999999999832e-02 1.615572700000000028e-01 2.084464178200000006e+01
7.489195975000000338e+00 0.000000000000000000e+00 0.000000000000000000e+00 -3.685146115000000222e+00 6.501671690000000225e+00 0.000000000000000000e+00 -3.370123300000000266e-01 3.916548899999999778e-01 2.045905454800000101e+01
7.175553498000000197e+00 0.000000000000000000e+00 0.000000000000000000e+00 -3.702967931999999962e+00 6.331879874000000186e+00 0.000000000000000000e+00 -3.401033929999999761e-01 -4.094938889999999998e-01 1.936985089699999918e+01
7.351188171999999632e+00 0.000000000000000000e+00 0.000000000000000000e+00 -3.617237767999999853e+00 6.381861575000000286e+00 0.000000000000000000e+00 -3.308020070000000090e-01 3.844376349999999998e-01 2.008204355999999891e+01
7.744523504000000003e+00 0.000000000000000000e+00 0.000000000000000000e+00 -3.810782999999999809e+00 6.723331768000000430e+00 0.000000000000000000e+00 -3.485020180000000245e-01 4.050074949999999951e-01 2.115656064399999892e+01
7.639738180000000156e+00 0.000000000000000000e+00 0.000000000000000000e+00 -3.759222160999999840e+00 6.632363422000000064e+00 0.000000000000000000e+00 -3.437867000000000006e-01 3.995276429999999879e-01 2.087030713100000057e+01
7.535312848000000230e+00 0.000000000000000000e+00 0.000000000000000000e+00 -3.840079795999999934e+00 6.589920391999999794e+00 0.000000000000000000e+00 1.377487380000000095e-01 7.973086399999999851e-02 2.030229334999999935e+01
7.591967861999999734e+00 0.000000000000000000e+00 0.000000000000000000e+00 -3.735716220000000032e+00 6.590892090999999731e+00 0.000000000000000000e+00 -3.416370449999999725e-01 3.970294469999999798e-01 2.073980773699999958e+01
7.570776775999999764e+00 0.000000000000000000e+00 0.000000000000000000e+00 -3.869300288999999893e+00 6.457726083999999922e+00 0.000000000000000000e+00 2.836567499999999992e-02 1.604298749999999996e-01 2.069918163999999905e+01
7.556156521000000126e+00 0.000000000000000000e+00 0.000000000000000000e+00 -3.718094831999999794e+00 6.559802827999999586e+00 0.000000000000000000e+00 -3.400255420000000139e-01 3.951566570000000223e-01 2.064197798400000039e+01
7.530873588000000396e+00 0.000000000000000000e+00 0.000000000000000000e+00 -3.705654070000000022e+00 6.537853699000000240e+00 0.000000000000000000e+00 -3.388878149999999811e-01 3.938344610000000245e-01 2.057290983500000081e+01
7.586298829000000410e+00 0.000000000000000000e+00 0.000000000000000000e+00 -3.667166450999999938e+00 6.372423619000000095e+00 0.000000000000000000e+00 2.834245009999999954e-01 -4.527995639999999877e-01 1.954574873299999993e+01
7.522679701000000385e+00 0.000000000000000000e+00 0.000000000000000000e+00 -3.844718659999999844e+00 6.416700211000000209e+00 0.000000000000000000e+00 2.818546800000000171e-02 1.594106650000000069e-01 2.056767993100000069e+01
7.478449723999999854e+00 0.000000000000000000e+00 0.000000000000000000e+00 -3.679858298000000083e+00 6.492342437999999660e+00 0.000000000000000000e+00 -3.365287510000000148e-01 3.910929040000000190e-01 2.042969784099999941e+01
7.368001739000000327e+00 0.000000000000000000e+00 0.000000000000000000e+00 -3.754816181999999891e+00 6.443600403999999671e+00 0.000000000000000000e+00 1.346902189999999999e-01 7.796055100000000293e-02 1.985150924999999944e+01
7.534620159000000150e+00 0.000000000000000000e+00 0.000000000000000000e+00 -3.888265461000000034e+00 6.648728875999999843e+00 0.000000000000000000e+00 -3.571222589999999975e-01 -4.299850749999999944e-01 2.033912353699999898e+01
7.532791440999999644e+00 0.000000000000000000e+00 0.000000000000000000e+00 -3.706597772999999929e+00 6.539518665000000119e+00 0.000000000000000000e+00 -3.389741179999999909e-01 3.939347570000000243e-01 2.057814904499999997e+01
7.497022689999999656e+00 0.000000000000000000e+00 0.000000000000000000e+00 -3.820566702999999897e+00 6.556434179000000029e+00 0.000000000000000000e+00 1.370487770000000105e-01 7.932571700000000392e-02 2.019912868600000166e+01
7.549702402000000312e+00 0.000000000000000000e+00 0.000000000000000000e+00 -3.752525191000000149e+00 6.571723868000000301e+00 0.000000000000000000e+00 4.869000000000000308e-06 -3.689000000000000171e-06 2.057750099100000085e+01
7.516493793000000423e+00 0.000000000000000000e+00 0.000000000000000000e+00 -3.698578325000000167e+00 6.525370021999999715e+00 0.000000000000000000e+00 -3.382407270000000188e-01 3.930824560000000245e-01 2.053362698000000108e+01
