3.290410000000000057e+00 9.620400000000000063e-01 2.084118000000000137e+01 -2.600999999999999840e-02 3.388490000000000002e+00 6.200660000000000061e+00 3.201600000000000001e+00 3.295739999999999892e+00 1.055170999999999992e+01 5.409810000000000230e+00 8.284200000000000452e-01 1.780208000000000013e+01 -2.702420000000000044e+00 4.898749999999999716e+00 1.833117999999999981e+01 2.600760000000000183e+00 2.778000000000000025e+00 3.084290000000000198e+00 9.529400000000000093e-01 3.470790000000000042e+00 1.281338000000000044e+01 -5.014699999999999713e-01 6.305439999999999934e+00 1.070818000000000048e+01 3.096509999999999874e+00 6.462410000000000210e+00 1.236978000000000044e+01 1.914279999999999982e+00 3.211120000000000196e+00 1.795118000000000080e+01 5.821500000000000341e+00 8.446900000000000519e-01 3.220530000000000115e+00 3.662269999999999914e+00 5.432870000000000310e+00 6.282499999999999751e+00 1.970500000000000029e-01 5.925349999999999895e+00 1.326238000000000028e+01 6.784900000000000375e-01 3.343690000000000051e+00 1.026289000000000051e+01 -9.202700000000000324e-01 3.016659999999999897e+00 1.729977999999999838e+01 3.927509999999999835e+00 3.617030000000000189e+00 1.324967999999999968e+01 2.526050000000000129e+00 2.888009999999999966e+00 6.096549999999999692e+00 -1.568400000000000016e+00 5.089889999999999581e+00 7.422889999999999766e+00 -2.396009999999999973e+00 5.847730000000000317e+00 2.063807999999999865e+01 6.098550000000000360e+00 1.013579999999999925e+00 6.171719999999999651e+00 3.490369999999999973e+00 5.254799999999999471e-01 2.634430000000000049e+00 4.469000000000000056e-02 1.397790000000000088e+00 1.411048000000000080e+01 5.969129999999999825e+00 9.038800000000000168e-01 2.040688000000000102e+01 -3.426089999999999858e+00 6.028620000000000090e+00 1.009834000000000032e+01 2.806090000000000195e+00 5.013379999999999725e+00 1.651858000000000004e+01 2.628359999999999808e+00 7.627599999999999936e-01 1.736118000000000094e+01 3.707170000000000076e+00 5.053790000000000227e+00 3.331329999999999902e+00 2.318330000000000002e+00 3.397170000000000023e+00 2.073158000000000101e+01 -1.350699999999999956e-01 2.951099999999999834e+00 3.519930000000000003e+00 4.338300000000000267e+00 1.242050000000000098e+00 9.148880000000000123e+00
4.028450000000000308e+00 1.013060000000000072e+00 6.832899999999999530e-01 6.381000000000000560e-02 3.468599999999999905e+00 5.878400000000000070e+00 2.254000000000000004e+00 2.393810000000000215e+00 1.017841999999999913e+01 6.128829999999999778e+00 1.583509999999999973e+00 1.823095999999999961e+01 -8.969700000000000450e-01 5.740190000000000126e+00 1.784776000000000096e+01 2.663479999999999848e+00 3.279360000000000053e+00 3.573230000000000128e+00 -7.834900000000000198e-01 2.446349999999999802e+00 1.230986000000000047e+01 -1.316000000000000059e+00 4.592570000000000263e+00 1.014582000000000050e+01 1.655129999999999990e+00 5.909889999999999866e+00 1.145295999999999914e+01 2.592249999999999943e+00 3.570429999999999993e+00 1.762046000000000134e+01 6.400719999999999743e+00 1.116120000000000001e+00 2.954559999999999853e+00 -3.014520000000000088e+00 5.518460000000000143e+00 5.397140000000000271e+00 -1.476369999999999960e+00 4.932170000000000165e+00 1.299596000000000018e+01 -4.873500000000000054e-01 2.184050000000000047e+00 9.505480000000000373e+00 5.909999999999999976e-02 3.626770000000000049e+00 1.671646000000000143e+01 1.795209999999999972e+00 2.956539999999999946e+00 1.278825999999999929e+01 2.745319999999999983e+00 3.152810000000000112e+00 6.359490000000000087e+00 -1.107380000000000031e+00 5.244049999999999656e+00 7.163920000000000066e+00 -5.093499999999999694e-01 5.416730000000000267e+00 2.041466000000000136e+01 6.405610000000000248e+00 7.883400000000000407e-01 6.055719999999999992e+00 3.664350000000000218e+00 8.580799999999999539e-01 3.155850000000000044e+00 5.920250000000000234e+00 5.144499999999999629e-01 1.368365999999999971e+01 -1.193089999999999984e+00 2.185540000000000038e+00 1.494499999999999995e-01 3.450190000000000090e+00 4.733620000000000161e+00 9.687430000000000874e+00 3.931700000000000195e+00 5.939420000000000144e+00 1.721125999999999934e+01 3.808520000000000127e+00 1.519549999999999956e+00 1.716105999999999909e+01 3.748200000000000198e+00 5.279849999999999710e+00 2.554949999999999832e+00 1.812710000000000043e+00 3.127190000000000136e+00 2.028475999999999857e+01 -1.652200000000000057e-01 3.671009999999999884e+00 3.319459999999999855e+00 4.088160000000000238e+00 4.756000000000000227e-01 9.614789999999999281e+00
3.274750000000000050e+00 9.981700000000000017e-01 2.028933999999999926e+01 -5.208000000000000129e-02 3.120659999999999989e+00 6.197720000000000340e+00 3.256320000000000103e+00 3.281540000000000123e+00 1.026848000000000027e+01 5.321279999999999788e+00 7.649700000000000388e-01 1.726503999999999905e+01 -2.412009999999999987e+00 4.947560000000000180e+00 1.786794000000000082e+01 2.534330000000000194e+00 2.834769999999999790e+00 2.877759999999999874e+00 8.836600000000000010e-01 3.478289999999999882e+00 1.268233999999999995e+01 -7.543600000000000305e-01 5.914119999999999600e+00 1.043549999999999933e+01 2.828819999999999890e+00 6.379879999999999995e+00 1.241684000000000054e+01 1.623830000000000107e+00 2.987169999999999881e+00 1.777364000000000033e+01 6.113120000000000331e+00 6.938499999999999668e-01 3.144060000000000077e+00 3.911059999999999981e+00 5.446130000000000138e+00 6.142350000000000421e+00 -6.569999999999999452e-02 5.886120000000000019e+00 1.303693999999999953e+01 4.027800000000000269e-01 3.326670000000000016e+00 1.005758999999999936e+01 -8.105099999999999527e-01 3.204299999999999926e+00 1.680763999999999925e+01 3.653669999999999973e+00 3.403649999999999842e+00 1.268224000000000018e+01 2.597300000000000164e+00 3.205900000000000194e+00 6.322269999999999612e+00 -1.341280000000000028e+00 5.184470000000000134e+00 7.063220000000000276e+00 -2.609649999999999803e+00 5.414150000000000240e+00 2.040093999999999852e+01 6.001750000000000362e+00 9.347800000000000553e-01 6.274860000000000326e+00 3.451350000000000140e+00 3.766800000000000148e-01 2.564449999999999896e+00 1.433999999999999997e-01 1.555169999999999941e+00 1.406494000000000000e+01 5.883189999999999920e+00 6.663200000000000234e-01 2.007153999999999883e+01 -3.311640000000000139e+00 5.815050000000000274e+00 9.867050000000000765e+00 2.838169999999999860e+00 4.921940000000000204e+00 1.624823999999999913e+01 2.618059999999999832e+00 6.593999999999999861e-01 1.726643999999999934e+01 3.733779999999999877e+00 5.096250000000000391e+00 3.181729999999999947e+00 2.562860000000000138e+00 3.132150000000000212e+00 2.871999999999999900e-02 -2.600500000000000034e-01 2.946180000000000021e+00 3.458579999999999988e+00 4.193380000000000329e+00 1.298629999999999951e+00 9.086040000000000560e+00
2.531099999999999905e+00 1.103999999999999947e-02 2.235600000000000087e-01 5.550810000000000244e+00 2.212079999999999824e+00 7.269999999999999574e+00 4.716840000000000366e+00 4.310629999999999740e+00 9.216969999999999885e+00 -6.285199999999999676e-01 2.688019999999999854e+00 1.935435000000000016e+01 4.748470000000000191e+00 4.395719999999999850e+00 1.630464999999999876e+01 9.939599999999999547e-01 1.873609999999999998e+00 3.612429999999999808e+00 2.337889999999999802e+00 3.988519999999999843e+00 1.277435000000000009e+01 6.335320000000000285e+00 3.234699999999999798e-01 1.027945000000000064e+01 -1.629170000000000007e+00 6.356429999999999580e+00 1.319284999999999997e+01 1.038799999999999946e+00 2.601939999999999920e+00 1.585425000000000040e+01 1.501689999999999969e+00 5.748540000000000205e+00 2.114559999999999995e+00 2.709369999999999834e+00 4.153310000000000279e+00 5.871310000000000251e+00 8.395399999999999530e-01 6.237190000000000012e+00 1.207995000000000019e+01 2.482209999999999805e+00 3.844730000000000203e+00 1.024944999999999951e+01 5.955160000000000231e+00 2.216759999999999842e+00 1.670824999999999960e+01 5.049879999999999924e+00 3.933670000000000222e+00 1.365734999999999921e+01 1.082589999999999941e+00 2.238900000000000112e+00 6.236060000000000159e+00 -2.515589999999999993e+00 4.842360000000000220e+00 6.678160000000000096e+00 4.635530000000000150e+00 4.311899999999999622e+00 1.993374999999999986e+01 1.280850000000000044e+00 6.013589999999999769e+00 7.122860000000000191e+00 -1.066089999999999982e+00 5.758989999999999831e+00 3.114469999999999850e+00 3.656599999999999850e-01 2.220819999999999794e+00 1.322484999999999999e+01 5.233640000000000292e+00 3.558600000000000096e-01 1.992595000000000027e+01 1.405340000000000034e+00 3.659800000000000275e-01 1.005443999999999960e+01 1.845359999999999889e+00 4.925500000000000433e+00 1.597015000000000029e+01 2.703650000000000109e+00 4.262500000000000178e-01 1.584074999999999989e+01 2.875970000000000137e+00 3.736219999999999875e+00 3.254129999999999967e+00 1.795039999999999969e+00 2.674589999999999801e+00 1.993724999999999881e+01 5.987779999999999880e+00 2.093059999999999921e+00 2.678580000000000183e+00 -7.721400000000000485e-01 2.737519999999999953e+00 9.700390000000000512e+00
2.909850000000000048e+00 6.035599999999999854e-01 6.553000000000000491e-02 5.901010000000000311e+00 2.416170000000000151e+00 5.441510000000000069e+00 4.626780000000000115e+00 3.661560000000000148e+00 9.551729999999999166e+00 5.918669999999999654e+00 1.133860000000000090e+00 1.837325999999999837e+01 -1.773490000000000011e+00 5.467869999999999564e+00 1.721285999999999916e+01 1.574289999999999967e+00 2.181579999999999853e+00 3.236400000000000166e+00 1.451619999999999910e+00 3.548070000000000057e+00 1.241525999999999996e+01 4.785900000000000154e-01 6.165210000000000079e+00 1.030518999999999963e+01 -2.332749999999999879e+00 6.148500000000000298e+00 1.271025999999999989e+01 1.720779999999999976e+00 3.727520000000000167e+00 1.735086000000000084e+01 4.853439999999999976e+00 3.452600000000000113e-01 3.235520000000000174e+00 2.318330000000000002e+00 4.396440000000000126e+00 6.101779999999999760e+00 4.898899999999999921e-01 5.980730000000000324e+00 1.314335999999999949e+01 1.726879999999999971e+00 4.078759999999999941e+00 9.420199999999999463e+00 -7.419599999999999529e-01 3.362550000000000150e+00 1.608116000000000057e+01 4.205680000000000085e+00 3.565570000000000128e+00 1.248366000000000042e+01 1.066689999999999916e+00 2.028950000000000031e+00 5.901220000000000354e+00 -2.503820000000000157e+00 4.478089999999999904e+00 7.011790000000000411e+00 -2.700509999999999966e+00 5.701489999999999725e+00 1.935145999999999944e+01 4.132810000000000095e+00 1.595300000000000051e-01 6.146359999999999602e+00 -1.066899999999999959e+00 6.140990000000000393e+00 2.535350000000000215e+00 6.745999999999999774e-01 1.494799999999999907e+00 1.393845999999999918e+01 5.330599999999999561e+00 2.535700000000000176e-01 3.953599999999999892e-01 -2.057859999999999800e+00 6.289830000000000254e+00 9.985120000000000218e+00 3.137179999999999858e+00 6.256310000000000038e+00 1.632516000000000034e+01 3.437629999999999963e+00 1.455670000000000019e+00 1.696206000000000103e+01 2.730039999999999800e+00 4.550480000000000302e+00 2.923049999999999926e+00 1.294480000000000075e+00 3.162129999999999885e+00 2.012935999999999837e+01 -1.164619999999999989e+00 2.588020000000000209e+00 2.956119999999999859e+00 6.029370000000000118e+00 1.390940000000000065e+00 9.454150000000000276e+00
2.530980000000000008e+00 1.361539999999999973e+00 2.027806999999999960e+01 -1.355460000000000109e+00 2.715599999999999792e+00 5.760030000000000427e+00 5.098650000000000126e+00 3.671359999999999957e+00 1.014296000000000042e+01 5.679710000000000036e+00 1.291560000000000041e+00 1.855307000000000173e+01 -2.936290000000000067e+00 5.547310000000000407e+00 1.782757000000000147e+01 9.132700000000000262e-01 2.650370000000000115e+00 2.923200000000000021e+00 2.348899999999999988e+00 3.710090000000000110e+00 1.231047000000000047e+01 1.191820000000000102e+00 6.290490000000000137e+00 1.067027000000000037e+01 -1.368279999999999941e+00 6.281360000000000277e+00 1.252596999999999916e+01 8.752999999999999670e-01 3.843719999999999803e+00 1.780007000000000161e+01 1.163739999999999997e+00 6.119860000000000078e+00 3.449489999999999945e+00 2.084459999999999980e+00 4.159010000000000318e+00 6.057929999999999815e+00 1.031770000000000076e+00 5.986500000000000377e+00 1.339936999999999934e+01 2.375939999999999941e+00 4.110529999999999795e+00 9.905689999999999884e+00 -1.373050000000000104e+00 3.174659999999999815e+00 1.676097000000000037e+01 5.160319999999999574e+00 4.002830000000000332e+00 1.291226999999999947e+01 9.923499999999999543e-01 1.923570000000000002e+00 6.387940000000000396e+00 4.865899999999999892e+00 4.397000000000000242e+00 6.950510000000000410e+00 -2.136769999999999836e+00 5.336149999999999949e+00 2.023266999999999882e+01 7.914099999999999469e-01 6.616380000000000372e+00 6.185929999999999929e+00 2.684369999999999923e+00 6.962899999999999645e-01 2.331269999999999953e+00 1.600780000000000092e+00 1.856989999999999919e+00 1.407696999999999932e+01 5.354099999999999859e+00 5.737299999999999622e-01 1.260000000000000009e-01 -1.414279999999999982e+00 6.425290000000000390e+00 1.000805000000000078e+01 2.105119999999999880e+00 5.793040000000000411e+00 1.673986999999999981e+01 2.192149999999999821e+00 1.011479999999999935e+00 1.683057000000000158e+01 2.933800000000000185e+00 4.303770000000000095e+00 3.453310000000000102e+00 5.634000000000000119e-01 3.189099999999999824e+00 2.059106999999999843e+01 -1.679699999999999971e+00 3.057819999999999983e+00 3.254129999999999967e+00 -9.842499999999999583e-01 1.735090000000000021e+00 1.005198999999999998e+01
-1.445869999999999989e+00 6.304269999999999818e+00 2.062732000000000099e+01 -8.226299999999999724e-01 2.132960000000000189e+00 7.563880000000000159e+00 -2.548000000000000043e+00 4.920490000000000030e+00 9.676310000000000855e+00 6.462019999999999875e+00 2.029659999999999798e+00 1.996902000000000044e+01 -2.577220000000000066e+00 4.721180000000000376e+00 1.616141999999999967e+01 1.343129999999999935e+00 1.778829999999999911e+00 4.027160000000000295e+00 2.285789999999999988e+00 4.111469999999999736e+00 1.267731999999999992e+01 5.952379999999999782e+00 2.402799999999999936e-01 1.041531999999999947e+01 1.893799999999999928e+00 1.174700000000000050e-01 1.316342000000000034e+01 1.416449999999999987e+00 2.493020000000000014e+00 1.630341999999999913e+01 1.100770000000000026e+00 6.350209999999999688e+00 2.365460000000000118e+00 2.445969999999999978e+00 4.517940000000000289e+00 6.541039999999999743e+00 1.459079999999999933e+00 6.538809999999999789e+00 1.310671999999999926e+01 2.633239999999999803e+00 4.077460000000000306e+00 1.013244000000000078e+01 -1.144549999999999956e+00 2.188429999999999875e+00 1.685701999999999856e+01 5.028050000000000352e+00 4.249850000000000350e+00 1.346522000000000041e+01 1.428150000000000031e+00 2.038330000000000197e+00 6.781170000000000364e+00 4.950450000000000017e+00 4.467509999999999870e+00 6.760830000000000339e+00 -2.342360000000000220e+00 4.589339999999999975e+00 1.886931999999999832e+01 5.042639999999999567e+00 1.322599999999999887e-01 8.031869999999999621e+00 2.330970000000000208e+00 5.489000000000000129e-02 2.488420000000000076e+00 6.143199999999999772e-01 2.412700000000000067e+00 1.369782000000000011e+01 1.411929999999999907e+00 6.297380000000000422e+00 2.050562000000000040e+01 1.460990000000000011e+00 7.717600000000000016e-01 1.078222000000000058e+01 2.247660000000000213e+00 4.791549999999999976e+00 1.653772000000000020e+01 2.997209999999999930e+00 1.481500000000000039e-01 1.598771999999999949e+01 2.347879999999999967e+00 4.302430000000000199e+00 3.829979999999999940e+00 1.170490000000000030e+00 2.169779999999999820e+00 2.037841999999999842e+01 6.274119999999999919e+00 1.860889999999999933e+00 3.973409999999999886e+00 -1.056689999999999907e+00 2.982870000000000132e+00 9.948850000000000193e+00
2.145199999999999996e+00 1.616299999999999959e-01 1.921007000000000176e+01 4.883969999999999700e+00 2.362049999999999983e+00 6.107560000000000322e+00 5.059059999999999668e+00 3.579480000000000217e+00 9.716459999999999653e+00 6.255049999999999777e+00 2.294570000000000221e+00 1.939327000000000112e+01 -2.194900000000000073e+00 4.777820000000000178e+00 1.578416999999999959e+01 1.488760000000000083e+00 1.976539999999999964e+00 3.995499999999999829e+00 2.466540000000000177e+00 4.186670000000000336e+00 1.272326999999999941e+01 1.353990000000000027e+00 6.188530000000000086e+00 9.872849999999999682e+00 2.548399999999999999e+00 2.281400000000000095e-01 1.237227000000000032e+01 1.347930000000000073e+00 2.659569999999999990e+00 1.684056999999999960e+01 1.474169999999999980e+00 6.147890000000000299e+00 2.404560000000000031e+00 3.006419999999999870e+00 4.790619999999999656e+00 5.613909999999999734e+00 1.206700000000000106e+00 6.551420000000000243e+00 1.247977000000000025e+01 2.405380000000000074e+00 3.666399999999999881e+00 1.009506999999999977e+01 6.123759999999999870e+00 2.353239999999999998e+00 1.660507000000000133e+01 -2.360850000000000115e+00 4.349459999999999660e+00 1.314246999999999943e+01 1.646619999999999973e+00 2.293649999999999967e+00 6.433659999999999712e+00 -1.879799999999999915e+00 4.845769999999999911e+00 6.302369999999999806e+00 4.581310000000000215e+00 4.347859999999999836e+00 1.974766999999999939e+01 6.461700000000000221e-01 6.278240000000000265e+00 6.609589999999999854e+00 2.413050000000000139e+00 3.081400000000000250e-01 2.455239999999999867e+00 1.081779999999999964e+00 2.133560000000000123e+00 1.323856999999999928e+01 5.127600000000000158e+00 1.204599999999999976e-01 1.970097000000000165e+01 -1.292580000000000062e+00 6.418319999999999581e+00 9.660370000000000346e+00 2.474439999999999973e+00 4.728970000000000340e+00 1.568627000000000038e+01 2.836829999999999963e+00 3.162499999999999756e-01 1.663376999999999839e+01 3.070619999999999905e+00 4.004279999999999617e+00 3.119099999999999984e+00 1.528070000000000039e+00 2.781750000000000167e+00 1.943927000000000049e+01 6.004850000000000243e+00 2.339700000000000113e+00 3.530670000000000197e+00 -8.360499999999999599e-01 1.764569999999999972e+00 9.553819999999999979e+00
2.760269999999999779e+00 2.988999999999999990e-01 2.067000000000000087e-02 -8.730799999999999672e-01 2.789860000000000007e+00 5.754879999999999995e+00 4.500390000000000335e+00 3.877339999999999787e+00 9.924820000000000420e+00 5.494959999999999845e+00 1.269470000000000098e+00 1.774583000000000155e+01 -2.069109999999999783e+00 5.052649999999999864e+00 1.726473000000000013e+01 1.412360000000000060e+00 2.366470000000000073e+00 3.332899999999999974e+00 1.652130000000000098e+00 3.260470000000000201e+00 1.243662999999999919e+01 9.056800000000000406e-01 5.977289999999999992e+00 1.045622999999999969e+01 -2.828609999999999847e+00 5.932000000000000384e+00 1.236443000000000048e+01 1.631359999999999921e+00 3.563680000000000181e+00 1.805342999999999876e+01 4.648729999999999585e+00 5.118000000000000327e-01 2.931750000000000078e+00 2.590739999999999821e+00 4.925790000000000113e+00 5.817269999999999719e+00 1.317110000000000003e+00 5.873490000000000322e+00 1.302823000000000064e+01 1.392030000000000101e+00 3.529440000000000133e+00 9.760519999999999641e+00 -5.821600000000000108e-01 3.280050000000000132e+00 1.635463000000000022e+01 4.673799999999999955e+00 3.381679999999999797e+00 1.273052999999999990e+01 1.765549999999999953e+00 2.204769999999999897e+00 6.003280000000000172e+00 -2.365610000000000213e+00 4.881000000000000227e+00 6.664410000000000167e+00 -2.740180000000000060e+00 4.916479999999999961e+00 1.970963000000000065e+01 4.567079999999999806e+00 5.825299999999999923e-01 5.574729999999999741e+00 -1.336840000000000028e+00 6.385679999999999801e+00 2.575990000000000002e+00 6.417500000000000426e-01 1.508769999999999945e+00 1.411642999999999937e+01 5.057590000000000252e+00 9.972900000000000098e-01 2.015613000000000099e+01 -2.421749999999999847e+00 6.280850000000000044e+00 9.607920000000000016e+00 2.947029999999999816e+00 5.595699999999999896e+00 1.638102999999999909e+01 2.757709999999999884e+00 1.493179999999999952e+00 1.661542999999999992e+01 2.694529999999999870e+00 4.689339999999999620e+00 2.940040000000000209e+00 1.723729999999999984e+00 2.567410000000000192e+00 1.416999999999999926e-01 -1.060070000000000068e+00 2.793590000000000018e+00 2.916650000000000187e+00 5.479230000000000267e+00 1.691899999999999959e+00 9.008609999999999118e+00
-2.011010000000000186e+00 5.740910000000000402e+00 1.909254999999999924e+01 -1.185179999999999900e+00 2.142360000000000042e+00 6.366480000000000139e+00 -2.625459999999999905e+00 4.268139999999999823e+00 8.695380000000000109e+00 5.692160000000000331e+00 1.581909999999999927e+00 1.849784999999999968e+01 -2.683769999999999989e+00 3.881940000000000168e+00 1.568844999999999956e+01 8.574199999999999600e-01 2.181140000000000079e+00 2.590530000000000221e+00 2.282039999999999846e+00 3.647549999999999848e+00 1.269885000000000019e+01 5.003730000000000011e+00 3.844999999999999807e-02 1.029845000000000077e+01 -1.513740000000000085e+00 5.820389999999999731e+00 1.192384999999999984e+01 1.125089999999999923e+00 1.470599999999999907e+00 1.545345000000000013e+01 4.516060000000000407e+00 2.870199999999999974e-01 2.235739999999999839e+00 1.773260000000000058e+00 4.296400000000000219e+00 5.860380000000000145e+00 1.013290000000000024e+00 6.029790000000000205e+00 1.274205000000000076e+01 2.411859999999999893e+00 3.418559999999999821e+00 1.009784999999999933e+01 5.712010000000000254e+00 1.379000000000000004e+00 1.591774999999999984e+01 4.752679999999999794e+00 3.332590000000000163e+00 1.289615000000000045e+01 1.117960000000000065e+00 1.896570000000000089e+00 5.513219999999999565e+00 -2.741150000000000198e+00 4.666409999999999947e+00 6.205280000000000129e+00 3.766799999999999926e+00 3.610529999999999795e+00 1.849924999999999997e+01 4.473659999999999748e+00 2.469800000000000051e-01 6.512940000000000396e+00 -1.729610000000000092e+00 6.152400000000000091e+00 2.468770000000000131e+00 7.606300000000000283e-01 1.501190000000000024e+00 1.284295000000000009e+01 8.447200000000000264e-01 5.346529999999999561e+00 1.918554999999999922e+01 2.398899999999999810e+00 2.046000000000000041e-01 9.672029999999999461e+00 1.730979999999999963e+00 4.061639999999999695e+00 1.539905000000000079e+01 -9.165900000000000158e-01 5.779139999999999944e+00 1.617664999999999864e+01 2.060189999999999966e+00 4.423110000000000319e+00 2.840230000000000032e+00 1.004059999999999953e+00 2.002850000000000019e+00 1.925254999999999939e+01 5.525430000000000064e+00 2.562040000000000095e+00 2.708250000000000046e+00 -7.113399999999999723e-01 2.343609999999999971e+00 8.899689999999999657e+00
3.925469999999999793e+00 1.314920000000000089e+00 3.131900000000000239e-01 2.760799999999999921e-01 3.409279999999999866e+00 6.416430000000000078e+00 2.440449999999999786e+00 2.831469999999999931e+00 1.093998999999999988e+01 6.260139999999999816e+00 1.383590000000000098e+00 1.858949000000000140e+01 -1.127269999999999994e+00 5.623709999999999987e+00 1.849268999999999963e+01 2.452780000000000182e+00 3.346849999999999881e+00 3.552830000000000155e+00 -8.185000000000000608e-02 2.295119999999999827e+00 1.284969000000000072e+01 -1.746269999999999989e+00 5.187409999999999854e+00 1.018798999999999921e+01 1.768990000000000062e+00 5.686160000000000103e+00 1.225718999999999959e+01 2.397190000000000154e+00 3.889899999999999913e+00 1.913748999999999967e+01 6.597260000000000346e+00 1.171850000000000058e+00 3.414709999999999912e+00 -2.732149999999999856e+00 5.924000000000000377e+00 5.110960000000000392e+00 -5.660100000000000131e-01 5.169419999999999682e+00 1.284168999999999983e+01 -8.670999999999999541e-02 2.703139999999999876e+00 1.020307999999999993e+01 8.512000000000000122e-02 3.398849999999999927e+00 1.765219000000000094e+01 2.137140000000000040e+00 2.927569999999999784e+00 1.369458999999999982e+01 2.748460000000000125e+00 3.877759999999999874e+00 6.249889999999999723e+00 -1.515530000000000044e+00 5.036500000000000199e+00 7.132249999999999979e+00 -2.959300000000000264e-01 5.803079999999999572e+00 2.114058999999999955e+01 7.061779999999999724e+00 8.606899999999999551e-01 6.351919999999999789e+00 3.831729999999999858e+00 1.077800000000000091e+00 3.252369999999999983e+00 5.997720000000000162e+00 8.881299999999999750e-01 1.399329000000000001e+01 6.386960000000000193e+00 1.861820000000000030e+00 1.545799999999999952e-01 3.180569999999999897e+00 5.166450000000000209e+00 1.025755000000000017e+01 3.817450000000000010e+00 5.761790000000000411e+00 1.809468999999999994e+01 3.906639999999999890e+00 1.164719999999999978e+00 1.751718999999999937e+01 4.305699999999999861e+00 5.413450000000000095e+00 2.953120000000000189e+00 1.638069999999999915e+00 2.753699999999999815e+00 8.569000000000000228e-02 9.229999999999999316e-02 4.020260000000000389e+00 3.245979999999999865e+00 3.558149999999999924e+00 8.408700000000000063e-01 9.714589999999999392e+00
3.961549999999999905e+00 8.792100000000000470e-01 1.922820000000000107e+01 -8.878200000000000536e-01 1.779819999999999958e+00 6.306379999999999875e+00 4.871879999999999988e+00 4.359619999999999607e+00 8.835829999999999629e+00 -6.240299999999999736e-01 1.237970000000000015e+00 1.890859999999999985e+01 4.790370000000000239e+00 3.714700000000000113e+00 1.618280000000000030e+01 1.122659999999999991e+00 2.300600000000000200e+00 2.902470000000000105e+00 3.000710000000000210e+00 4.136820000000000164e+00 1.268759999999999977e+01 1.101779999999999982e+00 6.101589999999999847e+00 9.039249999999999119e+00 -7.786800000000000388e-01 5.647029999999999994e+00 1.250409999999999933e+01 1.504299999999999971e+00 1.657659999999999911e+00 1.521729999999999983e+01 1.364719999999999933e+00 5.978930000000000078e+00 2.939439999999999831e+00 2.665620000000000100e+00 3.966229999999999922e+00 5.808189999999999742e+00 5.443780000000000285e+00 -1.621100000000000041e-01 1.195659999999999989e+01 2.427329999999999988e+00 3.742080000000000073e+00 9.328939999999999344e+00 6.610960000000000392e+00 1.611960000000000059e+00 1.599619999999999997e+01 5.367340000000000444e+00 3.487260000000000026e+00 1.292559999999999931e+01 1.810130000000000017e+00 1.504620000000000068e+00 5.904490000000000016e+00 -2.194650000000000212e+00 4.457670000000000243e+00 6.280809999999999782e+00 5.159460000000000157e+00 3.325250000000000039e+00 1.898679999999999879e+01 1.260250000000000092e+00 5.914869999999999628e+00 6.230509999999999771e+00 2.546359999999999957e+00 8.920000000000000151e-02 1.885369999999999990e+00 1.600689999999999946e+00 1.771509999999999918e+00 1.227899999999999991e+01 1.866090000000000027e+00 5.710069999999999979e+00 9.469999999999999252e-03 2.205729999999999968e+00 2.435599999999999987e-01 9.722789999999999822e+00 2.434810000000000141e+00 4.096989999999999910e+00 1.541920000000000002e+01 2.426540000000000141e+00 -3.180299999999999794e-01 1.681500000000000128e+01 3.111810000000000187e+00 4.073199999999999932e+00 3.038650000000000073e+00 1.151000000000000023e+00 2.881479999999999819e+00 3.115100000000000091e-01 6.133429999999999715e+00 2.145820000000000061e+00 3.349349999999999827e+00 6.263919999999999710e+00 2.067390000000000061e+00 9.059369999999999479e+00
2.178279999999999994e+00 1.473599999999999910e-01 1.913520000000000110e+01 4.843880000000000408e+00 2.306970000000000187e+00 6.038549999999999862e+00 4.998280000000000278e+00 3.634020000000000028e+00 9.760460000000000136e+00 6.242140000000000022e+00 2.322410000000000085e+00 1.937950000000000017e+01 -2.212200000000000166e+00 4.719839999999999591e+00 1.577870000000000061e+01 1.448180000000000023e+00 2.013720000000000176e+00 4.077139999999999986e+00 2.537879999999999914e+00 4.101259999999999906e+00 1.262829999999999941e+01 1.336819999999999897e+00 6.239049999999999763e+00 9.795709999999999695e+00 2.532900000000000151e+00 1.576700000000000046e-01 1.234600000000000009e+01 1.303430000000000089e+00 2.736679999999999779e+00 1.680089999999999861e+01 1.408749999999999947e+00 6.129749999999999588e+00 2.380939999999999834e+00 2.962200000000000166e+00 4.794710000000000250e+00 5.633300000000000196e+00 1.286999999999999922e+00 6.537519999999999776e+00 1.261420000000000030e+01 2.496710000000000207e+00 3.718240000000000212e+00 1.003731999999999935e+01 6.033780000000000143e+00 2.303609999999999935e+00 1.660320000000000107e+01 5.015259999999999607e+00 4.309400000000000119e+00 1.314439999999999920e+01 1.540170000000000039e+00 2.345549999999999802e+00 6.513630000000000031e+00 -1.878730000000000011e+00 4.920519999999999783e+00 6.447049999999999947e+00 4.481690000000000396e+00 4.357429999999999914e+00 1.979769999999999897e+01 7.144599999999999840e-01 6.295609999999999928e+00 6.624970000000000248e+00 2.497009999999999952e+00 3.267399999999999749e-01 2.492890000000000050e+00 1.072629999999999972e+00 2.053350000000000009e+00 1.322429999999999950e+01 5.146939999999999849e+00 1.577099999999999891e-01 1.971259999999999835e+01 -1.153950000000000031e+00 6.404600000000000293e+00 9.645509999999999806e+00 2.555340000000000167e+00 4.771399999999999864e+00 1.582119999999999926e+01 3.008290000000000131e+00 2.681200000000000250e-01 1.654489999999999839e+01 3.093539999999999957e+00 4.039460000000000051e+00 2.937809999999999810e+00 1.550999999999999934e+00 2.730809999999999960e+00 1.946809999999999974e+01 5.905990000000000073e+00 2.318779999999999841e+00 3.545720000000000205e+00 -8.257499999999999840e-01 1.759200000000000097e+00 9.470750000000000668e+00