5.788459999999999717e-01 6.040800000000000336e-02 -1.196420999999999957e+00 -3.475679999999999881e-01 -5.081940000000000346e-01 -2.573269999999999724e-01 1.772105000000000041e+00 2.756140000000000256e-01 1.154440000000000049e-01 -4.153950000000000142e-01 -4.865740000000000065e-01 6.590749999999999664e-01 6.704400000000000359e-01 9.943799999999999861e-02 -2.454210000000000003e-01 -1.487581000000000042e+00 1.352656999999999998e+00 6.332419999999999716e-01 3.863429999999999920e-01 -4.659280000000000088e-01 9.737989999999999702e-01 -6.657990000000000297e-01 -1.179745000000000044e+00 4.265860000000000207e-01 -1.684400000000000064e-01 -8.986300000000000399e-01 4.668260000000000187e-01 -1.180982999999999894e+00 -1.280580000000000052e+00 1.762677000000000049e+00 2.774178000000000033e+00 -2.516889999999999961e-01 1.201446000000000014e+00 3.726920000000000233e-01 -8.258780000000000010e-01 -7.147160000000000180e-01 4.894999999999999907e-01 4.281909999999999883e-01 -3.549849999999999950e-01 -7.498059999999999725e-01 3.945460000000000078e-01 -6.694069999999999743e-01 1.227299999999999919e-02 8.451600000000000223e-01 -4.820490000000000053e-01 -1.622948000000000057e+00 4.377229999999999732e-01 -1.112114000000000047e+00 4.920299999999999674e-02 4.786929999999999796e-01 4.588990000000000014e-01 -4.191000000000000281e-02 1.971099999999999935e-02 -3.515909999999999869e-01 -9.494900000000000562e-02 -2.218650000000000067e-01 5.417729999999999491e-01 -2.385430000000000050e-01 -2.313149999999999928e-01 2.508499999999999966e-02 -1.042524999999999924e+00 -1.512550999999999979e+00 2.969330000000000025e-01 1.764360000000000095e-01 5.001649999999999707e-01 3.501179999999999848e-01 -1.173631000000000091e+00 -3.430699999999999861e-01 -1.184140000000000054e-01 3.098629999999999995e-01 -5.205009999999999915e-01 -2.901850000000000263e-01 6.406239999999999712e-01 1.395081999999999933e+00 2.392000000000000029e-02 8.812050000000000161e-01 -1.368499999999999925e-02 -3.641820000000000057e-01 1.322669999999999957e-01 1.333110000000000017e+00 5.066099999999999770e-02 5.519299999999999901e-02 1.171360000000000040e-01 -9.574030000000000040e-01 -5.392199999999999771e-02 7.336099999999999566e-02 -9.957960000000000145e-01 -1.716600000000000070e-02 9.292099999999999804e-01 1.235269999999999979e-01
-1.181926000000000032e+00 4.390199999999999658e-02 -2.139977000000000018e+00 7.143410000000000037e-01 -1.510302999999999951e+00 4.373469999999999858e-01 -1.013440000000000035e-01 2.068780000000000063e-01 1.076187999999999922e+00 1.504105999999999943e+00 -9.298299999999999621e-02 9.232400000000000329e-02 -6.960290000000000088e-01 -2.097269999999999968e-01 1.136090999999999962e+00 -1.079541000000000084e+00 -1.026888999999999941e+00 7.476310000000000455e-01 6.987309999999999910e-01 6.545400000000000107e-01 8.807610000000000161e-01 -6.761899999999999578e-01 1.065619000000000094e+00 6.525119999999999809e-01 8.511689999999999534e-01 -1.359745999999999899e+00 2.025405000000000122e+00 -1.228860999999999981e+00 1.773749999999999938e+00 1.876482999999999901e+00 -3.102770000000000250e-01 7.062509999999999621e-01 8.261330000000000062e-01 -6.404539999999999678e-01 -1.331110000000000071e-01 4.741810000000000191e-01 1.569379999999999942e-01 -4.329939999999999900e-01 -1.613644999999999996e+00 6.414480000000000182e-01 -7.446800000000000641e-02 2.655460000000000043e-01 -1.429809999999999970e-01 -6.160539999999999905e-01 -4.515850000000000142e-01 4.271900000000000003e-02 1.793549999999999867e-01 -1.050105000000000066e+00 -2.368540000000000090e-01 5.051849999999999952e-01 -1.095984000000000069e+00 -4.114119999999999999e-01 6.432240000000000180e-01 -1.611529999999999907e-01 1.732960000000000056e-01 8.690379999999999772e-01 -2.293749999999999956e-01 4.287119999999999820e-01 8.531809999999999672e-01 -6.641559999999999686e-01 2.681100000000000150e-02 8.511699999999999822e-02 1.107391000000000014e+00 -2.194969999999999977e-01 -3.945199999999999818e-01 -2.433639999999999970e-01 1.108090000000000047e-01 -5.541089999999999627e-01 4.376249999999999862e-01 -4.982500000000000123e-02 1.523059999999999969e-01 -3.927399999999999780e-01 -3.572250000000000147e-01 -3.820000000000000045e-03 -8.462100000000000177e-02 7.761169999999999458e-01 -1.173910999999999927e+00 -1.665496000000000087e+00 1.283177000000000012e+00 3.774399999999999977e-01 -8.484700000000000575e-02 7.280729999999999702e-01 -1.556460000000000066e-01 -3.527129999999999987e-01 4.343020000000000214e-01 -4.061810000000000143e-01 -6.134119999999999573e-01 -1.238331999999999988e+00 2.867600000000000010e-02 -1.192445999999999895e+00
-5.484520000000000506e-01 -3.442209999999999992e-01 5.311249999999999583e-01 3.546270000000000255e-01 -5.455000000000000127e-02 -2.840949999999999864e-01 -5.392580000000000151e-01 4.623200000000000087e-01 -1.412371999999999961e+00 8.257809999999999873e-01 -1.935320000000000096e-01 1.066081999999999974e+00 -5.775320000000000453e-01 5.230900000000000133e-02 8.903410000000000490e-01 -1.014993000000000034e+00 -3.752909999999999857e-01 2.920499999999999763e-01 2.917629999999999946e-01 5.514800000000000257e-02 -6.674689999999999790e-01 6.626079999999999748e-01 -3.303209999999999757e-01 -4.026850000000000152e-01 2.824499999999999789e-01 -4.885439999999999783e-01 -4.238259999999999805e-01 -7.888599999999999779e-02 9.724559999999999871e-01 1.021722000000000019e+00 -1.262164999999999981e+00 2.968080000000000163e-01 4.145190000000000263e-01 -1.091879000000000044e+00 -1.917359999999999898e-01 -6.057740000000000347e-01 8.845490000000000297e-01 3.976089999999999902e-01 1.156179999999999986e-01 3.152469999999999994e-01 5.022379999999999622e-01 1.330479999999999996e-01 -4.104780000000000095e-01 -5.319300000000000139e-01 -5.573150000000000048e-01 -6.206260000000000110e-01 7.384779999999999678e-01 1.997862000000000027e+00 -4.831320000000000059e-01 -5.590629999999999766e-01 -1.277290000000000092e-01 1.038715999999999973e+00 2.399820000000000009e-01 3.623910000000000187e-01 8.825579999999999536e-01 5.978109999999999813e-01 -4.995330000000000048e-01 -2.033000000000000085e-02 -1.859379999999999922e-01 -2.242979999999999974e-01 5.998649999999999816e-01 3.614330000000000043e-01 6.417770000000000419e-01 -5.251689999999999969e-01 -1.143046000000000006e+00 3.064040000000000097e-01 -7.560999999999999943e-01 3.923000000000000272e-03 -9.173499999999999988e-01 -8.190560000000000063e-01 3.058939999999999992e-01 2.584449999999999803e-01 -1.680000000000000070e-03 1.997819999999999874e-01 5.308599999999999985e-01 6.524069999999999592e-01 2.875489999999999990e-01 -7.541719999999999535e-01 1.108848000000000056e+00 -2.948350000000000137e-01 1.053299999999999931e-01 -1.160899999999999953e-02 -6.859680000000000222e-01 -1.263114999999999988e+00 8.466979999999999507e-01 6.719600000000000017e-01 -6.953190000000000204e-01 1.523099999999999975e-02 -7.667260000000000186e-01 1.674789999999999890e-01
-4.418659999999999810e-01 -2.985110000000000263e-01 3.770999999999999908e-01 1.409939999999999971e+00 -4.331999999999999740e-01 -1.036402000000000045e+00 1.619869999999999921e-01 7.392619999999999747e-01 1.043069999999999942e+00 -1.785800000000000054e+00 -3.070099999999999912e-02 3.796680000000000055e-01 -9.516860000000000319e-01 1.461297000000000068e+00 7.492600000000000648e-02 -1.198140000000000038e-01 -4.058320000000000261e-01 -3.608580000000000121e-01 -1.933999999999999955e-03 3.880029999999999868e-01 1.187205999999999984e+00 -7.625939999999999941e-01 -1.072791999999999968e+00 -3.413359999999999728e-01 -3.398430000000000062e-01 8.913780000000000037e-01 -3.657409999999999828e-01 -2.346139999999999892e-01 -1.236755000000000049e+00 -1.932709999999999984e-01 7.985299999999999343e-02 1.053126000000000007e+00 8.556489999999999929e-01 -1.467338000000000031e+00 2.319759999999999878e-01 -8.416470000000000340e-01 -4.370510000000000228e-01 -2.572220000000000062e-01 1.104251000000000094e+00 -6.734130000000000393e-01 -4.111839999999999939e-01 -1.112956999999999974e+00 7.378440000000000554e-01 -8.005539999999999878e-01 8.350290000000000212e-01 -1.004551999999999889e+00 -3.778810000000000224e-01 -7.624729999999999563e-01 -5.185659999999999714e-01 -7.107809999999999961e-01 5.032379999999999631e-01 1.643942000000000014e+00 -5.458380000000000454e-01 -7.079499999999999682e-02 1.371855999999999964e+00 5.966770000000000129e-01 -7.577990000000000004e-01 -4.969930000000000181e-01 6.781800000000000050e-01 4.778600000000000070e-01 -2.650449999999999751e-01 6.319559999999999622e-01 -9.403589999999999449e-01 9.910670000000000313e-01 -3.879360000000000031e-01 -4.840099999999999958e-02 -3.899130000000000096e-01 -7.441379999999999661e-01 -3.874090000000000034e-01 1.329900000000000082e+00 5.057199999999999890e-02 5.328559999999999963e-01 1.458679999999999977e+00 4.759169999999999789e-01 6.605900000000000660e-02 -5.693179999999999907e-01 -3.660100000000000159e-02 5.166180000000000216e-01 3.582300000000000068e-02 4.730090000000000128e-01 -4.964810000000000056e-01 3.836760000000000170e-01 -2.580459999999999976e-01 -5.839999999999999705e-03 8.414740000000000553e-01 -7.907490000000000352e-01 4.328960000000000030e-01 1.429899999999999921e-02 1.127366000000000090e+00 -6.646579999999999711e-01
-6.735499999999999821e-01 2.491309999999999913e-01 -1.007730999999999932e+00 -6.306690000000000351e-01 2.077060000000000017e-01 2.125885999999999942e+00 -2.129649999999999876e-01 -2.928660000000000152e-01 1.004912999999999945e+00 2.329610000000000014e-01 5.476309999999999789e-01 -7.073880000000000168e-01 9.953140000000000320e-01 4.544739999999999891e-01 -2.239298999999999928e+00 -3.763059999999999738e-01 2.511000000000000211e-03 -8.825800000000000312e-02 5.631779999999999564e-01 4.103040000000000020e-01 -7.922200000000000075e-02 9.487449999999999495e-01 7.598660000000000414e-01 3.430759999999999921e-01 1.411089000000000038e+00 -3.957285000000000164e+00 -2.613694999999999879e+00 2.983259999999999801e-01 -4.990249999999999964e-01 2.378339999999999899e-01 1.070810000000000040e+00 -6.895890000000000075e-01 7.480590000000000295e-01 -1.466200000000000003e-01 7.129060000000000397e-01 -2.051499999999999851e-02 -1.492110000000000103e-01 -6.404900000000000038e-01 -8.051869999999999861e-01 3.206350000000000033e-01 -9.873640000000000194e-01 1.946029999999999982e-01 4.337869999999999782e-01 4.438130000000000130e-01 9.661689999999999445e-01 -2.565209999999999990e-01 4.061739999999999795e-01 8.537200000000000344e-02 5.576069999999999638e-01 -7.921400000000000663e-02 3.268860000000000099e-01 -4.253540000000000099e-01 -2.896389999999999798e-01 -1.352605000000000057e+00 -1.048089000000000048e+00 -3.991450000000000276e-01 2.822097999999999995e+00 1.596292999999999962e+00 1.486129999999999951e-01 -9.810050000000000159e-01 -1.784504000000000090e+00 5.061269999999999936e-01 4.783410000000000162e-01 -1.194714999999999971e+00 3.449396999999999824e+00 1.652754999999999974e+00 9.012210000000000498e-01 -2.914780000000000149e-01 -1.292389999999999928e-01 -1.540839999999999987e-01 1.066180000000000044e-01 -5.928599999999999842e-02 -6.077799999999999869e-01 -1.327509000000000050e+00 -5.107610000000000205e-01 -3.286370000000000124e-01 9.298700000000000021e-02 -1.186679999999999957e-01 1.446320000000000106e-01 -2.858220000000000205e-01 1.045971999999999902e+00 -3.639049999999999785e-01 5.972049999999999859e-01 -6.831500000000000350e-01 -2.277150000000000007e-01 5.973400000000000237e-02 -8.799289999999999612e-01 -8.939719999999999889e-01 5.842309999999999448e-01 2.439719999999999944e-01
-1.166789000000000076e+00 -4.738189999999999902e-01 2.637899999999999967e-02 -2.393649999999999944e-01 -9.877920000000000034e-01 2.767669999999999852e-01 -2.411639999999999895e-01 1.531412999999999913e+00 -1.165879999999999972e-01 4.167299999999999893e-01 4.585830000000000184e-01 -1.833687000000000067e+00 6.756419999999999648e-01 -1.506000000000000047e-02 -1.384990000000000110e-01 2.687700000000000158e-02 -5.608630000000000004e-01 -3.125419999999999865e-01 1.370000000000000037e-02 -5.312569999999999792e-01 3.024608000000000185e+00 3.360730000000000106e-01 1.306934999999999958e+00 -7.496400000000000285e-02 -1.050567999999999946e+00 9.448060000000000347e-01 1.559719999999999995e+00 3.568000000000000338e-02 -1.174927999999999972e+00 1.106054000000000093e+00 -1.169092000000000020e+00 1.667442000000000091e+00 6.110640000000000516e-01 1.086568999999999896e+00 1.149424999999999919e+00 6.241290000000000449e-01 9.675369999999999804e-01 -1.999539999999999929e-01 -6.328880000000000061e-01 1.838730000000000087e-01 -4.375310000000000032e-01 -1.979956000000000049e+00 -8.236620000000000053e-01 4.323500000000000260e-02 -9.052000000000000324e-02 -1.170031000000000043e+00 -6.872049999999999548e-01 -4.360599999999999893e-02 4.972999999999999990e-03 -3.678069999999999951e-01 -1.690049999999999886e-01 -1.279506999999999950e+00 4.959049999999999847e-01 8.234829999999999650e-01 -2.522119999999999918e-01 3.800959999999999894e-01 -5.539299999999999780e-02 7.757070000000000354e-01 -5.916850000000000165e-01 -7.846269999999999634e-01 -2.652399999999999897e-02 -5.813650000000000206e-01 4.019679999999999920e-01 2.457779999999999965e-01 -1.003649999999999959e-01 -1.239106999999999958e+00 -1.092410000000000048e-01 -3.201899999999999885e-02 1.407798000000000105e+00 3.605470000000000064e-01 -2.060750000000000082e-01 -1.020178999999999947e+00 7.232899999999999885e-01 2.552440000000000264e-01 5.597900000000000098e-02 -1.228780000000000011e-01 6.308270000000000266e-01 8.931499999999999995e-01 1.543080000000000007e-01 9.611999999999999711e-02 -2.849900000000000211e-01 7.083810000000000384e-01 -2.964209999999999900e-01 -1.119210999999999956e+00 7.275420000000000220e-01 -3.949619999999999798e-01 -6.156040000000000401e-01 2.078250000000000097e-01 -1.320923999999999987e+00 -2.997330000000000272e-01
-4.453849999999999754e-01 4.155989999999999962e-01 -8.368079999999999963e-01 -2.730453999999999937e+00 3.266439999999999899e-01 -3.252209999999999823e-01 -6.509770000000000278e-01 6.289510000000000378e-01 -8.602309999999999679e-01 -1.637118999999999991e+00 9.482620000000000493e-01 -2.021002000000000187e+00 -6.419150000000000134e-01 -9.030620000000000314e-01 1.292300000000000046e-02 -1.292850000000000055e+00 1.113353999999999955e+00 1.173489999999999950e-01 4.343830000000000191e-01 1.457539999999999947e-01 9.497229999999999839e-01 2.750420000000000087e-01 2.504800000000000082e-02 1.921211000000000002e+00 7.942219999999999835e-01 1.008226999999999984e+00 1.292607000000000061e+00 -2.699500000000000233e-01 -1.165961000000000025e+00 -1.737199999999999855e-02 7.396209999999999729e-01 4.687729999999999952e-01 1.006246999999999892e+00 -6.182260000000000533e-01 3.436540000000000150e-01 -1.615600000000000022e-02 -3.878699999999999926e-01 2.984800000000000231e-01 -1.107574999999999976e+00 -1.763250000000000095e-01 -2.703740000000000032e-01 -4.633599999999999941e-01 -3.316740000000000244e-01 -1.455899999999999972e-01 2.821009999999999907e-01 -7.703200000000000047e-01 -1.550753000000000048e+00 2.135000000000000179e-03 2.074075000000000113e+00 -3.741820000000000146e-01 -5.750610000000000444e-01 9.169739999999999558e-01 2.211670000000000025e-01 8.333709999999999729e-01 4.284549999999999748e-01 -7.226900000000000546e-01 2.249264000000000152e+00 1.224859999999999977e-01 -1.450480000000000103e-01 -1.674363999999999963e+00 8.495660000000000434e-01 -1.169084999999999930e+00 1.337099999999999955e-01 1.812620000000000064e-01 -1.006110000000000060e-01 -2.373500000000000054e-01 -7.722290000000000543e-01 -4.000460000000000127e-01 5.373170000000000446e-01 -1.185910000000000020e-01 -2.101969999999999950e-01 -1.715508000000000033e+00 1.300438999999999901e+00 9.027800000000000269e-01 1.079220000000000040e-01 -3.218750000000000222e-01 1.046661000000000064e+00 -3.204640000000000266e-01 -1.906519999999999881e-01 8.208600000000000618e-02 -1.369340000000000002e-01 2.061876999999999960e+00 5.275360000000000049e-01 3.380090000000000039e-01 -3.013000000000000053e-03 -6.809969999999999635e-01 -5.266420000000000545e-01 1.181022999999999934e+00 -6.643799999999999706e-01 1.050157000000000007e+00
4.520310000000000161e-01 -5.471620000000000372e-01 9.588689999999999714e-01 2.188930000000000042e-01 -1.292570999999999914e+00 -4.021759999999999780e-01 -8.932670000000000332e-01 2.275619999999999976e+00 3.201400000000000079e-02 8.937799999999999911e-02 1.721594999999999986e+00 -4.421320000000000250e-01 -1.161199000000000092e+00 -1.024135999999999935e+00 1.235300000000000009e-01 -1.090791999999999984e+00 3.859250000000000180e-01 -3.839139999999999775e-01 -2.453599999999999878e-02 3.052409999999999846e-01 1.018181999999999920e+00 -5.203090000000000215e-01 -4.101870000000000238e-01 -6.924069999999999947e-01 -1.645183000000000062e+00 -2.832390000000000185e-01 -4.022229999999999972e-01 3.295900000000000218e-02 2.234990000000000032e-01 -1.132355000000000000e+00 -4.286969999999999947e-01 1.068975000000000009e+00 2.074229999999999963e-01 -1.386721000000000092e+00 3.959880000000000067e-01 7.969340000000000312e-01 1.623787000000000091e+00 7.343399999999999928e-02 9.430429999999999646e-01 5.427980000000000027e-01 3.129319999999999879e-01 -8.022460000000000147e-01 4.219010000000000260e-01 1.996860000000000024e-01 -1.573440000000000116e-01 5.796050000000000368e-01 1.978669999999999873e-01 -4.322759999999999936e-01 8.986429999999999696e-01 7.338000000000000078e-01 7.838540000000000507e-01 -6.429329999999999767e-01 -2.224879999999999913e-01 5.689530000000000420e-01 5.211080000000000156e-01 4.416869999999999963e-01 -9.986399999999999444e-02 1.711348000000000091e+00 1.108480000000000021e-01 -1.817840000000000011e-01 6.970760000000000289e-01 -1.327183000000000002e+00 -8.151589999999999669e-01 -3.103839999999999932e-01 -5.990750000000000242e-01 3.151260000000000172e-01 -4.147930000000000228e-01 -1.282543999999999906e+00 5.372479999999999478e-01 -4.800380000000000202e-01 -9.176959999999999562e-01 2.761399999999999966e-01 2.626709999999999878e-01 1.637299999999999867e-02 3.033930000000000238e-01 1.631170000000000120e-01 6.069170000000000398e-01 -8.606999999999999373e-02 -6.265169999999999906e-01 1.068403999999999909e+00 -6.429859999999999465e-01 -4.477929999999999966e-01 -5.202360000000000317e-01 5.881570000000000409e-01 5.096209999999999907e-01 -1.200372999999999912e+00 -2.348260000000000070e-01 1.348225999999999924e+00 -5.119019999999999682e-01 -5.451049999999999507e-01
-1.505399999999999967e-02 -1.240309000000000106e+00 -1.204331000000000040e+00 -1.086322000000000010e+00 -1.803569999999999895e-01 -2.457779999999999965e-01 -5.031750000000000389e-01 -1.658670000000000089e+00 6.697200000000000375e-02 -6.335549999999999793e-01 1.382670000000000010e-01 -1.437075000000000102e+00 -2.266279999999999961e-01 1.495068999999999981e+00 6.597439999999999971e-01 5.544400000000000439e-01 2.078510000000000080e-01 -3.669720000000000204e-01 3.465269999999999739e-01 2.128520000000000134e-01 5.092689999999999717e-01 -5.337499999999999883e-02 1.063919999999999977e+00 -2.786989999999999745e-01 -3.978539999999999854e-01 9.991039999999999921e-01 4.244049999999999767e-01 6.973629999999999551e-01 2.409830000000000028e-01 -2.428128000000000064e+00 2.621208000000000204e+00 -2.515900000000000081e-02 3.102539999999999742e-01 7.505399999999999572e-02 -4.541560000000000041e-01 -1.122452999999999923e+00 -6.016999999999999779e-03 -2.694400000000000128e-01 -4.645730000000000137e-01 6.358209999999999695e-01 -1.447880000000000000e-01 6.500000000000000222e-02 4.644800000000000040e-01 -4.797830000000000150e-01 1.139600000000000057e-01 -6.649220000000000130e-01 8.561799999999999966e-02 -5.732099999999999973e-01 -7.204800000000000093e-01 6.551050000000000484e-01 2.935900000000000176e-01 4.435419999999999918e-01 -2.404630000000000101e-01 -6.733000000000000269e-03 8.021519999999999762e-01 6.725489999999999524e-01 3.175709999999999922e-01 7.746340000000000447e-01 9.915799999999999614e-02 1.018026000000000098e+00 -1.427005000000000079e+00 -2.089139999999999886e-01 4.781980000000000119e-01 3.857889999999999930e-01 -3.032290000000000263e-01 -1.417878999999999889e+00 -3.262050000000000227e-01 -4.938549999999999884e-01 1.010761000000000021e+00 5.848830000000000418e-01 6.279609999999999914e-01 1.164358000000000004e+00 -1.116389000000000076e+00 -2.670690000000000008e-01 5.230000000000000274e-04 9.112249999999999517e-01 -4.961209999999999787e-01 6.595060000000000366e-01 -1.580209999999999948e-01 8.304400000000000670e-02 6.291330000000000533e-01 -8.028880000000000461e-01 5.877959999999999852e-01 1.231106000000000034e+00 -8.239199999999999857e-01 -1.394710000000000116e-01 3.480440000000000200e-01 -3.353070000000000217e-01 -5.674940000000000540e-01 2.454109999999999903e-01
7.410069999999999713e-01 -4.421499999999999736e-02 -1.492140000000000133e-01 -4.792719999999999758e-01 9.258220000000000338e-01 -5.387399999999999967e-01 1.801139999999999963e-01 -3.173349999999999782e-01 1.093935000000000102e+00 -7.586169999999999858e-01 -1.572060000000000124e-01 5.829109999999999570e-01 -1.284780000000000089e-01 -2.590930000000000177e-01 2.971429999999999905e-01 -6.592999999999999902e-03 -1.619879999999999931e-01 4.927600000000000036e-02 -7.400830000000000464e-01 1.881980000000000042e-01 5.472280000000000477e-01 9.526670000000000416e-01 1.629299999999999915e-01 -2.037942000000000142e+00 -7.471640000000000503e-01 -1.342546999999999935e+00 2.951722000000000179e+00 3.835250000000000048e-01 -1.145670000000000022e-01 4.172509999999999830e-01 3.771000000000000046e-02 -1.241870000000000057e-01 3.036429999999999962e-01 7.346289999999999765e-01 8.825800000000000312e-01 -1.269392999999999994e+00 -5.770900000000000335e-02 2.104719999999999924e-01 9.825509999999999522e-01 -7.762399999999999856e-02 1.526701000000000086e+00 -1.682147999999999977e+00 -1.663820000000000021e-01 2.056200000000000042e-02 -1.975270000000000081e-01 1.380540000000000100e+00 9.383890000000000287e-01 6.967500000000000082e-02 8.337200000000000166e-01 -4.664670000000000205e-01 4.275500000000000134e-02 2.801109999999999989e-01 -6.126580000000000359e-01 -3.889170000000000127e-01 8.166219999999999590e-01 -3.183529999999999971e-01 -1.512940000000000118e-01 -1.459559999999999969e+00 -1.537250000000000005e+00 4.263499999999999929e-02 -2.031519999999999992e-01 -2.414900000000000102e-01 4.600600000000000245e-01 -2.794189999999999729e-01 -4.496390000000000109e-01 -2.934590000000000254e-01 -2.691390000000000171e-01 1.211278999999999995e+00 -7.548580000000000290e-01 -1.131420000000000065e-01 1.497239999999999960e-01 -2.699216999999999977e+00 8.336970000000000214e-01 -4.660679999999999823e-01 2.038979999999999959e-01 -1.144771999999999901e+00 7.286580000000000279e-01 -3.185620000000000118e-01 8.588160000000000238e-01 2.140370000000000050e-01 1.611110000000000042e+00 -3.507190000000000030e-01 -4.537220000000000142e-01 -8.547749999999999515e-01 -5.395910000000000428e-01 1.214790000000000036e-01 2.285840000000000094e-01 -5.117390000000000549e-01 -2.140479999999999883e-01 1.451670999999999934e+00
-8.598470000000000280e-01 -9.245689999999999742e-01 4.437829999999999830e-01 1.363550000000000040e-01 -6.807060000000000333e-01 -6.946269999999999945e-01 4.547220000000000151e-01 -1.414042000000000021e+00 1.934929999999999983e-01 2.634819999999999940e-01 5.309400000000000230e-02 1.073855000000000004e+00 3.692659999999999831e-01 5.472569999999999935e-01 1.295611000000000068e+00 1.296980999999999939e+00 4.812099999999999711e-02 9.070460000000000189e-01 -1.404225000000000056e+00 5.411439999999999584e-01 -3.308400000000000230e-02 9.956509999999999527e-01 5.514649999999999830e-01 8.057910000000000350e-01 3.215930000000000177e-01 1.092335000000000056e+00 1.420350000000000001e+00 -5.749319999999999986e-01 -5.425529999999999520e-01 1.964019999999999933e-01 2.951900000000000010e-02 4.743229999999999946e-01 1.943070000000000075e-01 7.805600000000000038e-02 6.138850000000000140e-01 2.872933999999999877e+00 -1.905918999999999919e+00 -4.858649999999999913e-01 -3.673300000000000176e-02 -7.189750000000000307e-01 -2.628399999999999834e-02 -8.323070000000000190e-01 -2.050819999999999865e-01 -1.472700000000000051e-02 -4.367409999999999903e-01 1.578632999999999953e+00 3.580709999999999726e-01 -3.938139999999999974e-01 1.626670000000000060e-01 -2.958009999999999806e-01 -2.276890000000000025e-01 -1.219269999999999937e-01 2.888100000000000112e-01 5.594299999999999828e-01 -5.861760000000000304e-01 5.256629999999999914e-01 -9.758000000000000007e-01 5.661429999999999518e-01 3.308639999999999914e-01 -1.128463999999999912e+00 4.608199999999999796e-02 3.241100000000000231e-02 -4.362440000000000206e-01 -7.259100000000000275e-02 -4.648530000000000162e-01 -2.624349999999999739e-01 4.138310000000000044e-01 -4.372000000000000192e-02 -6.289430000000000298e-01 1.132292999999999994e+00 5.178019999999999845e-01 -1.239341000000000026e+00 3.189359999999999973e-01 3.313679999999999959e-01 -2.294069999999999998e-01 -4.737319999999999864e-01 2.487550000000000039e-01 8.374199999999999700e-02 -1.009811000000000014e+00 4.469399999999999762e-02 -2.618208000000000091e+00 1.397466000000000097e+00 -2.813060000000000005e-01 -2.002770000000000106e-01 -1.294480000000000075e+00 -9.413430000000000408e-01 1.864740000000000009e-01 -3.339790000000000258e-01 -4.842929999999999735e-01 1.408979999999999955e-01
-1.237865999999999911e+00 1.274600000000000039e-02 1.481560000000000099e-01 -1.991110000000000102e-01 5.620950000000000113e-01 -9.193199999999999983e-02 3.565380000000000216e-01 1.050679999999999947e-01 -4.109999999999999938e-03 3.763770000000000171e-01 1.102960000000000051e-01 -8.717610000000000081e-01 1.813355000000000050e+00 -9.515500000000000347e-02 8.471130000000000049e-01 5.869849999999999790e-01 -1.059935999999999989e+00 7.454700000000000215e-02 -9.931560000000000388e-01 -8.042169999999999597e-01 -7.078399999999999970e-02 1.937679999999999958e-01 1.315700000000000029e-02 3.273670000000000191e-01 -5.227899999999999908e-02 7.542569999999999553e-01 -9.192460000000000075e-01 2.980000000000000010e-02 -3.644220000000000237e-01 -4.067910000000000137e-01 -1.483649999999999969e-01 9.471439999999999859e-01 -6.472580000000000000e-01 1.711319000000000035e+00 -1.274400999999999895e+00 -9.011099999999999666e-02 -9.363730000000000109e-01 6.783909999999999663e-01 4.219390000000000085e-01 -1.752910000000000024e-01 4.156299999999999994e-01 -1.940300000000000080e-01 -6.722679999999999767e-01 -8.368799999999999850e-02 6.157899999999999485e-01 1.491837000000000080e+00 1.229110000000000064e-01 9.993200000000000693e-02 -7.396679999999999922e-01 2.725380000000000025e-01 -3.573330000000000117e-01 -4.258680000000000243e-01 -5.769079999999999764e-01 -4.805900000000000172e-01 -5.681960000000000344e-01 -7.068349999999999911e-01 -2.231569999999999943e-01 -7.134080000000000421e-01 1.617633000000000099e+00 -1.228609999999999980e-01 2.953819999999999779e-01 1.193850000000000050e-01 7.231300000000000505e-01 1.611889999999999989e-01 -4.465800000000000325e-02 1.888279999999999959e+00 2.030250000000000110e-01 1.072799000000000058e+00 -4.863439999999999985e-01 4.215079999999999938e-01 -1.253268000000000049e+00 -2.308489999999999986e-01 -4.559409999999999852e-01 4.348420000000000063e-01 1.724019999999999997e-01 -1.184309999999999946e-01 2.909820000000000184e-01 -6.287310000000000398e-01 -2.039390000000000092e-01 -2.944799999999999848e-02 7.522090000000000165e-01 1.799560000000000048e-01 -2.772990000000000177e-01 -5.764200000000000434e-01 -2.610379999999999923e-01 -3.661940000000000195e-01 4.899549999999999739e-01 8.015799999999999315e-02 -5.934450000000000003e-01 -1.585100000000000120e-01
3.428069999999999729e-01 -7.137400000000000411e-01 6.492660000000000098e-01 4.864060000000000050e-01 -1.881100000000000133e-02 -1.847280000000000033e-01 8.592950000000000310e-01 1.206431000000000031e+00 -3.809890000000000221e-01 6.842299999999999771e-02 1.927521000000000040e+00 -3.120820000000000261e-01 -5.788769999999999749e-01 -3.903809999999999780e-01 5.233229999999999826e-01 -5.842659999999999521e-01 1.018680000000000002e-01 -1.072980999999999963e+00 -1.161615999999999982e+00 3.652509999999999923e-01 1.196307999999999927e+00 4.830269999999999841e-01 -4.244399999999999840e-01 2.167550000000000032e-01 -4.430990000000000206e-01 -2.414900000000000102e-01 -2.379989999999999883e-01 1.760629999999999973e-01 -3.210359999999999880e-01 -6.035369999999999902e-01 -2.629940000000000055e-01 9.413799999999999946e-01 3.420719999999999872e-01 -6.868149999999999533e-01 1.771069999999999867e-01 1.896120000000000028e-01 6.763890000000000180e-01 -2.775090000000000057e-01 8.105800000000000505e-02 -4.815429999999999988e-01 2.221839999999999926e-01 -8.836770000000000458e-01 8.792959999999999665e-01 2.253580000000000028e-01 -1.114379999999999954e-01 1.194555000000000033e+00 7.185900000000000620e-02 -5.394799999999999596e-01 9.857660000000000311e-01 7.180600000000000316e-01 6.177340000000000053e-01 -1.265295999999999976e+00 -1.044497999999999927e+00 1.621430000000000093e-01 1.051571999999999951e+00 4.951249999999999818e-01 -3.763400000000000079e-01 1.229705000000000048e+00 -3.566690000000000138e-01 -7.264600000000000224e-02 1.979029999999999956e-01 -7.999460000000000459e-01 -3.801660000000000039e-01 -2.308400000000000035e-02 3.211300000000000265e-02 2.371199999999999974e-01 -5.923599999999999977e-01 -1.532078000000000051e+00 4.329810000000000048e-01 -1.576994999999999925e+00 -7.234319999999999640e-01 3.098029999999999951e-01 -1.075089999999999935e-01 1.253759999999999875e-01 -1.687999999999999917e-02 -6.364210000000000145e-01 3.028370000000000228e-01 1.114200000000000051e-01 -1.004712000000000049e+00 9.149140000000000050e-01 6.572080000000000144e-01 -6.720880000000000187e-01 -4.228480000000000016e-01 1.309359999999999968e-01 7.339569999999999705e-01 -9.914520000000000000e-01 -3.145640000000000103e-01 7.125080000000000302e-01 4.309470000000000245e-01 -3.702320000000000055e-01