4.139067000081660730e+00 2.105128673185450328e-22 3.052029115605665078e-22 -4.139150569071483154e+00 7.169025999666708060e+00 -4.842480583198989219e-21 -1.395625528624212114e-04 1.715512983152268347e-04 2.920610699937083865e+01
4.139066949081660951e+00 1.026929808694318835e-21 1.999268806069167374e-21 -4.139150538071553420e+00 7.169025923666591638e+00 -4.842480583198989219e-21 -1.395775536936928599e-04 1.714942992927702902e-04 2.920610712037096945e+01
4.139066824081661267e+00 1.042324632510623658e-21 3.052029115605665078e-22 -4.139150476071777440e+00 7.169025745666226079e+00 -4.842480583198989219e-21 -1.394515557290138224e-04 1.714303018613512399e-04 2.920610723437146561e+01
4.139066627081660954e+00 -3.040469426443591726e-22 -1.388862982948034170e-21 -4.139150383072156103e+00 7.169025469665623262e+00 -4.842480583198989219e-21 -1.391635590367274551e-04 1.713753061264048293e-04 2.920610734537232034e+01
4.139066358081660901e+00 4.121024736001210629e-22 3.052029115605665078e-22 -4.139150257072689243e+00 7.169025095664794733e+00 -4.842480583198989219e-21 -1.386935636801337195e-04 1.713473121737874147e-04 2.920610743637353579e+01
4.139066016081661026e+00 1.205852813307279340e-21 3.052029115605665078e-22 -4.139150091073369175e+00 7.169024620663773995e+00 -1.161874416123339268e-20 -1.380205697062400114e-04 1.713573201791122468e-04 2.920610749337513568e+01
4.139065598081661079e+00 2.710369674879175879e-21 3.052029115605665078e-22 -4.139149880074204368e+00 7.169024040662573150e+00 1.933782994835413493e-21 -1.371235771850360481e-04 1.714173302700506901e-04 2.920610749537712536e+01
4.139065103081660979e+00 2.188508440910899929e-21 1.999268806069167374e-21 -4.139149620075180280e+00 7.169023351661210519e+00 -4.842480583198989219e-21 -1.359865861818910539e-04 1.715373426049228466e-04 2.920610743837952228e+01
4.139064528081660477e+00 -1.646683102502581617e-21 3.052029115605665078e-22 -4.139149302076316594e+00 7.169022551659720577e+00 -4.842480583198989219e-21 -1.345995967426349103e-04 1.717243572689797248e-04 2.920610730338232486e+01
4.139063879081660957e+00 -4.323851396485158031e-22 1.999268806069167374e-21 -4.139148927077592965e+00 7.169021647658131435e+00 -4.842480583198989219e-21 -1.329646088094356003e-04 1.719843742280228907e-04 2.920610709438551211e+01
4.196769899000000414e+00 0.000000000000000000e+00 0.000000000000000000e+00 -4.045813182999999924e+00 7.028530718999999927e+00 0.000000000000000000e+00 7.907815230000000417e-01 1.072829279999999996e-01 3.003458465699999991e+01
4.196770102000000335e+00 0.000000000000000000e+00 0.000000000000000000e+00 -4.045812917000000120e+00 7.028530581000000055e+00 0.000000000000000000e+00 7.907837869999999603e-01 1.072839730000000047e-01 3.003458964000000009e+01
4.196770481999999802e+00 0.000000000000000000e+00 0.000000000000000000e+00 -4.045812354999999805e+00 7.028530267999999914e+00 0.000000000000000000e+00 7.907883770000000423e-01 1.072861420000000010e-01 3.003459932599999860e+01
4.196771033000000095e+00 0.000000000000000000e+00 0.000000000000000000e+00 -4.045811500000000116e+00 7.028529773999999897e+00 0.000000000000000000e+00 7.907952369999999842e-01 1.072894989999999965e-01 3.003461346099999929e+01
4.196771750999999995e+00 0.000000000000000000e+00 0.000000000000000000e+00 -4.045810357999999773e+00 7.028529093999999589e+00 0.000000000000000000e+00 7.908043200000000050e-01 1.072941079999999991e-01 3.003463183699999917e+01
4.196772634000000224e+00 0.000000000000000000e+00 0.000000000000000000e+00 -4.045808925000000222e+00 7.028528215999999773e+00 0.000000000000000000e+00 7.908156290000000199e-01 1.073000570000000042e-01 3.003465432699999837e+01
4.196773685000000143e+00 0.000000000000000000e+00 0.000000000000000000e+00 -4.045807193999999996e+00 7.028527128000000346e+00 0.000000000000000000e+00 7.908292179999999449e-01 1.073074640000000052e-01 3.003468092700000014e+01
4.196774912000000413e+00 0.000000000000000000e+00 0.000000000000000000e+00 -4.045805156000000125e+00 7.028525812999999900e+00 0.000000000000000000e+00 7.908451469999999706e-01 1.073164560000000045e-01 3.003471164200000132e+01
4.196776316000000229e+00 0.000000000000000000e+00 0.000000000000000000e+00 -4.045802809999999639e+00 7.028524262000000355e+00 0.000000000000000000e+00 7.908634169999999575e-01 1.073271279999999939e-01 3.003474637100000066e+01
4.196777890999999983e+00 0.000000000000000000e+00 0.000000000000000000e+00 -4.045800168999999613e+00 7.028522472999999771e+00 0.000000000000000000e+00 7.908839220000000170e-01 1.073395119999999980e-01 3.003478480200000078e+01
4.092077546999999704e+00 0.000000000000000000e+00 0.000000000000000000e+00 -4.138129582000000362e+00 7.162769748999999742e+00 0.000000000000000000e+00 -5.320242010000000299e-01 4.507131950000000109e-01 2.871091207899999986e+01
4.092077162999999906e+00 0.000000000000000000e+00 0.000000000000000000e+00 -4.138129561000000400e+00 7.162769125999999709e+00 0.000000000000000000e+00 -5.320260559999999694e-01 4.507134939999999923e-01 2.871090731299999987e+01
4.092076392000000062e+00 0.000000000000000000e+00 0.000000000000000000e+00 -4.138129524000000004e+00 7.162767866000000261e+00 0.000000000000000000e+00 -5.320297600000000182e-01 4.507140139999999962e-01 2.871089770600000080e+01
4.092075251999999885e+00 0.000000000000000000e+00 0.000000000000000000e+00 -4.138129489999999855e+00 7.162766006000000019e+00 0.000000000000000000e+00 -5.320353049999999584e-01 4.507146969999999975e-01 2.871088342299999852e+01
4.092073759999999893e+00 0.000000000000000000e+00 0.000000000000000000e+00 -4.138129472000000142e+00 7.162763573000000328e+00 0.000000000000000000e+00 -5.320426910000000120e-01 4.507154859999999985e-01 2.871086459200000007e+01
4.092071918000000252e+00 0.000000000000000000e+00 0.000000000000000000e+00 -4.138129478999999833e+00 7.162760578000000322e+00 0.000000000000000000e+00 -5.320519470000000251e-01 4.507163290000000266e-01 2.871084124200000076e+01
4.092069723999999908e+00 0.000000000000000000e+00 0.000000000000000000e+00 -4.138129519999999673e+00 7.162757021000000002e+00 0.000000000000000000e+00 -5.320631340000000487e-01 4.507171759999999971e-01 2.871081332500000016e+01
4.092067176999999667e+00 0.000000000000000000e+00 0.000000000000000000e+00 -4.138129603000000323e+00 7.162752901000000172e+00 0.000000000000000000e+00 -5.320763160000000491e-01 4.507179760000000202e-01 2.871078079899999835e+01
4.092064278999999694e+00 0.000000000000000000e+00 0.000000000000000000e+00 -4.138129733000000421e+00 7.162748230000000049e+00 0.000000000000000000e+00 -5.320915170000000138e-01 4.507186759999999848e-01 2.871074372800000063e+01
4.092061046999999618e+00 0.000000000000000000e+00 0.000000000000000000e+00 -4.138129914000000298e+00 7.162743038000000340e+00 0.000000000000000000e+00 -5.321086809999999723e-01 4.507192230000000022e-01 2.871070235099999834e+01
4.075693382999999947e+00 0.000000000000000000e+00 0.000000000000000000e+00 -4.019725131999999590e+00 7.284484542999999590e+00 0.000000000000000000e+00 -3.673195009999999927e-01 1.604355759999999964e-01 2.894995164599999882e+01
4.075693113999999895e+00 0.000000000000000000e+00 0.000000000000000000e+00 -4.019724820999999615e+00 7.284484643999999953e+00 0.000000000000000000e+00 -3.673202150000000055e-01 1.604345889999999886e-01 2.894994975199999843e+01
4.075692560000000242e+00 0.000000000000000000e+00 0.000000000000000000e+00 -4.019724188999999726e+00 7.284484810000000365e+00 0.000000000000000000e+00 -3.673216690000000173e-01 1.604324789999999890e-01 2.894994590199999962e+01
4.075691732000000123e+00 0.000000000000000000e+00 0.000000000000000000e+00 -4.019723253999999635e+00 7.284485049999999795e+00 0.000000000000000000e+00 -3.673238699999999968e-01 1.604291969999999956e-01 2.894994021500000159e+01
4.075690636000000033e+00 0.000000000000000000e+00 0.000000000000000000e+00 -4.019722029999999613e+00 7.284485368000000349e+00 0.000000000000000000e+00 -3.673268270000000224e-01 1.604247010000000029e-01 2.894993277000000020e+01
4.075689275000000222e+00 0.000000000000000000e+00 0.000000000000000000e+00 -4.019720526000000405e+00 7.284485769999999860e+00 0.000000000000000000e+00 -3.673305550000000030e-01 1.604189330000000135e-01 2.894992362200000002e+01
4.075687642000000110e+00 0.000000000000000000e+00 0.000000000000000000e+00 -4.019718742000000233e+00 7.284486257000000187e+00 0.000000000000000000e+00 -3.673350779999999816e-01 1.604118250000000079e-01 2.894991277500000137e+01
4.075685732000000172e+00 0.000000000000000000e+00 0.000000000000000000e+00 -4.019716676999999905e+00 7.284486831999999801e+00 0.000000000000000000e+00 -3.673404209999999726e-01 1.604033109999999929e-01 2.894990023500000120e+01
4.075683545999999602e+00 0.000000000000000000e+00 0.000000000000000000e+00 -4.019714337999999998e+00 7.284487497999999839e+00 0.000000000000000000e+00 -3.673465879999999739e-01 1.603933529999999885e-01 2.894988605300000017e+01
4.075681097000000364e+00 0.000000000000000000e+00 0.000000000000000000e+00 -4.019711746999999669e+00 7.284488259999999826e+00 0.000000000000000000e+00 -3.673535490000000014e-01 1.603819669999999864e-01 2.894987036499999888e+01
4.034040599999999976e+00 0.000000000000000000e+00 0.000000000000000000e+00 -4.039204237999999947e+00 7.072383526000000309e+00 0.000000000000000000e+00 1.063485889999999934e-01 9.866227700000000655e-02 2.931011057499999950e+01
4.034039948000000209e+00 0.000000000000000000e+00 0.000000000000000000e+00 -4.039203533000000235e+00 7.072382584999999722e+00 0.000000000000000000e+00 1.063486319999999985e-01 9.866201199999999338e-02 2.931010900000000063e+01
4.034038641000000425e+00 0.000000000000000000e+00 0.000000000000000000e+00 -4.039202103000000044e+00 7.072380684999999723e+00 0.000000000000000000e+00 1.063487510000000053e-01 9.866157600000000083e-02 2.931010578100000075e+01
4.034036702999999946e+00 0.000000000000000000e+00 0.000000000000000000e+00 -4.039199968000000140e+00 7.072377861999999737e+00 0.000000000000000000e+00 1.063489829999999942e-01 9.866096900000000114e-02 2.931010103399999878e+01
4.034034153000000344e+00 0.000000000000000000e+00 0.000000000000000000e+00 -4.039197146000000238e+00 7.072374141000000058e+00 0.000000000000000000e+00 1.063493630000000023e-01 9.866019500000000608e-02 2.931009484100000151e+01
4.034030998000000423e+00 0.000000000000000000e+00 0.000000000000000000e+00 -4.039193639999999696e+00 7.072369530999999654e+00 0.000000000000000000e+00 1.063499289999999958e-01 9.865926199999999757e-02 2.931008721399999928e+01
4.034027237000000099e+00 0.000000000000000000e+00 0.000000000000000000e+00 -4.039189442999999713e+00 7.072364024999999721e+00 0.000000000000000000e+00 1.063507179999999969e-01 9.865817699999999968e-02 2.931007815999999977e+01
4.034022863999999764e+00 0.000000000000000000e+00 0.000000000000000000e+00 -4.039184547999999708e+00 7.072357613000000320e+00 0.000000000000000000e+00 1.063517669999999998e-01 9.865694499999999589e-02 2.931006767499999910e+01
4.034017888000000163e+00 0.000000000000000000e+00 0.000000000000000000e+00 -4.039178960000000096e+00 7.072350306999999781e+00 0.000000000000000000e+00 1.063531110000000002e-01 9.865557599999999483e-02 2.931005579300000008e+01
4.034012339000000225e+00 0.000000000000000000e+00 0.000000000000000000e+00 -4.039172709999999888e+00 7.072342146000000440e+00 0.000000000000000000e+00 1.063547749999999986e-01 9.865409399999999773e-02 2.931004257700000082e+01
