2.069529770315629236e+00 1.194836002980117717e+00 1.366551500039363765e+00 -5.101420199185810488e-05 4.779344002794762680e+00 1.366556000040722196e+00 -2.781930082255934964e-05 4.160449343927602174e-05 7.375479999864086089e+00 -2.069608603852267414e+00 3.584559604278791056e+00 7.375474499836152553e+00 -8.064450756496924374e-05 2.389742478340447729e+00 1.108772299975570874e+01 -2.069651429001025722e+00 5.974250478183784629e+00 1.108771749978122578e+01 2.069441807074156259e+00 1.194932030190652972e+00 1.707967149965882925e+01 -1.289775014488694156e-04 4.779450030063280508e+00 1.707967599965505556e+01 4.138939772874421053e+00 1.348961108239491835e-04 2.078919999944734087e+01 2.069368988322975778e+00 3.584652895954159479e+00 2.078919449944356757e+01 -1.086461006770675429e-04 2.389798552678852328e+00 2.681681299963718601e+01 -2.069689430676282083e+00 5.974316552493495358e+00 2.681681749960925387e+01 2.069503759434432766e+00 1.194853290579061422e+00 3.854471499943816770e+00 -6.702514117179708773e-05 4.779371290451688736e+00 3.854475999940042197e+00 -6.864288980932046168e-05 2.389727927194023938e+00 6.120172999791518187e+00 -2.069639427383270114e+00 5.974235927037360838e+00 6.120167499817036116e+00 -4.139282070276220082e+00 7.169191476673156593e+00 2.918072899940792553e+01 -2.069701285700614513e+00 3.584673476858512231e+00 2.918072449943586122e+01 -6.664356967272040591e-05 2.389729752052391021e+00 1.357082299984471341e+01 -2.069647428121117905e+00 5.974247751837742371e+00 1.357081749981677810e+01 -7.824011546409151776e-05 9.636295942917549396e-05 1.582771999964279885e+01 -2.069649024633084977e+00 3.584604362832057411e+00 1.582772449966831729e+01 2.069379658691442359e+00 1.194950385572029372e+00 9.690671499401647182e+00 -1.911258841628783527e-04 4.779468385444658018e+00 9.690675999397871720e+00 -4.139257799262971105e+00 7.169154174237412747e+00 2.327390899953325132e+01 -2.069677014745348931e+00 3.584646174422768450e+00 2.327390449953189488e+01 2.069431324042594333e+00 1.194966864462972955e+00 2.555771149959258182e+01 -1.394605088510554721e-04 4.779484864306309255e+00 2.555770599958880496e+01 -1.407259800308881942e-04 2.389806825248810274e+00 1.939948299948197885e+01 -2.069721510555635913e+00 5.974324825063455080e+00 1.939948749945404671e+01
2.067099747561630618e+00 1.196306006143342815e+00 1.372441489862503250e+00 4.088984265798134739e-03 4.780054023665933016e+00 1.365486007963027104e+00 -2.959368413892822774e-03 7.164681594380854612e+00 7.377779005830874759e+00 2.067181382420053115e+00 3.587003590636688610e+00 7.375324487175830335e+00 -1.270669798766339191e-03 2.392662481575712263e+00 1.109118298832717819e+01 -2.060801437805874325e+00 5.977910514443510515e+00 1.108257751044146566e+01 2.071511817626624730e+00 1.193512039381895207e+00 1.707871150881950228e+01 4.961020323197695182e-03 4.780750053074690697e+00 1.707745600814429565e+01 5.997621994011922758e-04 1.690902230750559055e-03 2.078984999664583810e+01 2.068759000242673896e+00 3.583492886119937548e+00 2.078704450136773829e+01 5.513599286854578172e-04 2.389658550179302843e+00 2.681465300164179055e+01 -2.072399426956808455e+00 5.972066548087210158e+00 2.682067749965251480e+01 2.063613790373689749e+00 1.188163265946807989e+00 3.857721505310375498e+00 -3.717024155826590109e-03 4.780401260851333767e+00 3.851595988104464574e+00 -2.858636772786484880e-03 2.388947909083312116e+00 6.119512995335679939e+00 -2.068479450128158703e+00 5.979095927172630276e+00 6.117917488383215030e+00 -4.133022050118591473e+00 7.165931511448514257e+00 2.918020902408107631e+01 2.067278728529045040e+00 3.583987452425990483e+00 2.917651449640317196e+01 -1.566648353904668070e-03 2.391529736500638492e+00 1.356848299094803423e+01 -2.075137392485789878e+00 5.967997720737067802e+00 1.357106750486064151e+01 2.301751543973887520e-03 1.126379630676042042e-03 1.582870000237570807e+01 -2.065669023735137610e+00 3.584474385734235824e+00 1.582766450966459892e+01 2.069189712089580357e+00 1.187220374072074591e+00 9.687121521585801531e+00 -3.591116626600558866e-03 4.779588353661809563e+00 9.686555990831919871e+00 2.053741417320159319e-03 5.478183911591202881e-03 2.327281998908269856e+01 2.067072976716074706e+00 3.585170167755087345e+00 2.327621449239908102e+01 2.071181314469507928e+00 1.196446875811926436e+00 2.555812149948528855e+01 -6.039466936406109182e-03 4.778134847378824546e+00 2.556360598928882055e+01 -4.610744612909493077e-03 2.391686808703894940e+00 1.940268298317544193e+01 -2.063491526686002775e+00 5.976264867104929657e+00 1.940150750882266806e+01
2.064659724570679700e+00 1.197796009395296624e+00 1.378381479602953874e+00 8.268982733032762336e-03 4.780764044769079568e+00 1.364416015981842145e+00 -5.829348343471917396e-03 7.160261584477127350e+00 7.380079011843911019e+00 2.064881368565568032e+00 3.589463576803052280e+00 7.375154474413063710e+00 -2.470695337128057858e-03 2.395612484841170176e+00 1.109467297678654774e+01 -2.051871446737454807e+00 5.981600551108614106e+00 1.107741752120685597e+01 2.073591828260376246e+00 1.192082048602509214e+00 1.707774151803368312e+01 1.010101810312187022e-02 4.782070076288608362e+00 1.707520601669562410e+01 1.349751369341452767e-03 3.270908601775296149e-03 2.079053999382960072e+01 2.068139012170767010e+00 3.582322876287096669e+00 2.078491450329703483e+01 1.221366062946236319e-03 2.389508547679882078e+00 2.681247300369978248e+01 -2.075149423195623566e+00 5.969796543537376543e+00 2.682456749965747633e+01 2.057663821670226767e+00 1.181403241025553497e+00 3.860991510737079579e+00 -7.407023098662379040e-03 4.781431230931268317e+00 3.848685976172117051e+00 -5.658630632115135839e-03 2.388167890885488642e+00 6.118842990855617892e+00 -2.067319472975404082e+00 5.983985927219974243e+00 6.115637476861263799e+00 -4.126722029764854582e+00 7.162641546426883110e+00 2.917967904893837172e+01 2.065178742911214727e+00 3.583277427801927040e+00 2.917226449340936867e+01 -3.086653279098627422e-03 2.393349720862577357e+00 1.356615298194438601e+01 -2.080687356537582744e+00 5.961697689259346511e+00 1.357130750990575763e+01 4.701743135079195640e-03 2.176396359737203714e-03 1.582966000509835247e+01 -2.061639022872070903e+00 3.584354408897259425e+00 1.582759451975219989e+01 2.068979765907564161e+00 1.179430362368753427e+00 9.683541543897449699e+00 -7.021107297471031704e-03 4.779708321617392563e+00 9.682405982193360572e+00 4.233712713456368355e-03 1.087819338964261806e-02 2.327173997853158482e+01 2.064742968011350044e+00 3.585700161071458503e+00 2.327854448521727804e+01 2.072951304895192415e+00 1.197926887277758201e+00 2.555853149942637614e+01 -1.196947349602456301e-02 4.776794830365957978e+00 2.556953597888692897e+01 -9.120763329018238483e-03 2.393576791956860017e+00 1.940589296674290409e+01 -2.057211542899971324e+00 5.978214909465934035e+00 1.940353751828254403e+01
2.062209701376604087e+00 1.199296012765264319e+00 1.384381469290006272e+00 1.248898119972692566e-02 4.781474066104199672e+00 1.363346024097172426e+00 -8.729328172609083017e-03 7.155811574487517035e+00 7.382409017872157087e+00 2.062541354608939059e+00 3.591953562650001430e+00 7.374954461465771161e+00 -3.690721074311571759e-03 2.398592488020242275e+00 1.109817296510965257e+01 -2.042851455844058695e+00 5.985320588295660826e+00 1.107225753210156682e+01 2.075701839057578546e+00 1.190632057939148725e+00 1.707675152737898827e+01 1.529101595432503721e-02 4.783390099705020937e+00 1.707292602536762161e+01 2.109740407942390945e-03 4.860915119206981466e-03 2.079125999100823208e+01 2.067509023967162740e+00 3.581162866484900675e+00 2.078281450517287254e+01 1.891372302143796199e-03 2.389348545122579548e+00 2.681027300578700334e+01 -2.077949419498982930e+00 5.967516538844579443e+00 2.682850749957068004e+01 2.051643853309559340e+00 1.174563215845180197e+00 3.864311516229059329e+00 -1.113702206146935381e-02 4.782481200662193288e+00 3.845735964084418423e+00 -8.488624433956669380e-03 2.387377872513872124e+00 6.118172986332305108e+00 -2.066149495958808480e+00 5.988915927208084078e+00 6.113317465246058902e+00 -4.120372009248776557e+00 7.159331581636940278e+00 2.917912907397468913e+01 2.063058757528567266e+00 3.582547402916405499e+00 2.916796449042582040e+01 -4.616658369392564326e-03 2.395189705225471144e+00 1.356384297285792861e+01 -2.086307320030031054e+00 5.955317657258713204e+00 1.357150751501584907e+01 7.141734715853559866e-03 3.236413262566796480e-03 1.583060000788834465e+01 -2.057549021961711411e+00 3.584234432349812316e+00 1.582750452998458002e+01 2.068769820087426492e+00 1.171590350578018080e+00 9.679931566355618244e+00 -1.046109775662128726e-02 4.779808289398075338e+00 9.678215973589097132e+00 6.443683578561974767e-03 1.634820307154900496e-02 2.327066996784790121e+01 2.062372959247301019e+00 3.586240154156710602e+00 2.328087447790953490e+01 2.074731295261697639e+00 1.199416898802453613e+00 2.555894149936238691e+01 -1.794948012001504334e-02 4.775444813210301120e+00 2.557551596839340746e+01 -1.368078215248860578e-02 2.395476774978995138e+00 1.940912295016021361e+01 -2.050891559313474222e+00 5.980194952088470295e+00 1.940557752775093903e+01
2.059749678027722464e+00 1.200806016194662096e+00 1.390421458923659426e+00 1.674897963205649806e-02 4.782194087642005265e+00 1.362266032279722650e+00 -1.163930791096766566e-02 7.151341564469412049e+00 7.384749023934634948e+00 2.060171340608147883e+00 3.594463548235526051e+00 7.374724448387403264e+00 -4.910746821870350109e-03 2.401582491141027731e+00 1.110165295340340386e+01 -2.033761465207831076e+00 5.989080625917986289e+00 1.106710754304798172e+01 2.077831849911926820e+00 1.189172067392426868e+00 1.707576153680195574e+01 2.052101387680729458e-02 4.784710123265955239e+00 1.707061603413613682e+01 2.889729315203218730e-03 6.460921841044095157e-03 2.079200998820589064e+01 2.066869035651188735e+00 3.579992856830534809e+00 2.078078450705383418e+01 2.571378646278281790e-03 2.389178542565398633e+00 2.680805300792761869e+01 -2.080789415900710537e+00 5.965236534037525296e+00 2.683248749938699618e+01 2.045563885175719854e+00 1.167663190463672729e+00 3.867681521751889395e+00 -1.490702097659935173e-02 4.783531170102697239e+00 3.842765951899950405e+00 -1.132861817831114226e-02 2.386577854084432460e+00 6.117502981814060270e+00 -2.064989518986564132e+00 5.993865927050288533e+00 6.110967453547861084e+00 -4.114001988758804629e+00 7.156021616992632062e+00 2.917858909905896425e+01 2.060938772332782776e+00 3.581797377943997329e+00 2.916363448750085041e+01 -6.166663615122553767e-03 2.397039689589928635e+00 1.356157296369379317e+01 -2.091987283030780187e+00 5.948877624734572933e+00 1.357164752015649078e+01 9.621726334616614515e-03 4.306430280591524822e-03 1.583150001074568358e+01 -2.053399021004059133e+00 3.584114456091906042e+00 1.582739454036173932e+01 2.068549874406898414e+00 1.163730338700474709e+00 9.676311588848268030e+00 -1.391108808619492300e-02 4.779898257033151410e+00 9.673995964989840601e+00 8.673654162427829259e-03 2.185821292863553492e-02 2.326961995709536879e+01 2.059982950448087546e+00 3.586790147097534742e+00 2.328319447052416891e+01 2.076541285776797530e+00 1.200876910531293085e+00 2.555936149945880942e+01 -2.394948682770653425e-02 4.774104795968650450e+00 2.558150595782214509e+01 -1.826080106882616017e-02 2.397396757856387950e+00 1.941234293347055129e+01 -2.044531575786381783e+00 5.982184994943263057e+00 1.940761753728643768e+01
2.057299654644832110e+00 1.202326019653003231e+00 1.396451448552230357e+00 2.101897808799857437e-02 4.782914109208549647e+00 1.361176040486290484e+00 -1.455928776633725469e-02 7.146891554393540957e+00 7.387089029914152505e+00 2.057791326727473447e+00 3.596973533617035201e+00 7.374444435284855714e+00 -6.130772425191334876e-03 2.404572494086392620e+00 1.110507294169707748e+01 -2.024651474683825114e+00 5.992830663861458795e+00 1.106202755407174187e+01 2.079971860731604227e+00 1.187722076875125321e+00 1.707476154621985387e+01 2.577101174008805673e-02 4.786040146943379980e+00 1.706830604292353470e+01 3.699718115271026508e-03 8.070928796046261677e-03 2.079277998544673167e+01 2.066219047106860440e+00 3.578832847324068034e+00 2.077882450888132126e+01 3.261385138819122322e-03 2.388978540096303060e+00 2.680584301018019033e+01 -2.083679412434654488e+00 5.962966529029023022e+00 2.683649749905295678e+01 2.039453917118913218e+00 1.160733165025704450e+00 3.871091527290168699e+00 -1.870701978607735086e-02 4.784571139310773269e+00 3.839775939672148919e+00 -1.416861196182548840e-02 2.385767835772343748e+00 6.116872977325033212e+00 -2.063859541826748245e+00 5.998795926630637432e+00 6.108587441835498844e+00 -4.107621968362615839e+00 7.152731652377477545e+00 2.917803912410843026e+01 2.058828787251358872e+00 3.581027353030661331e+00 2.915930448465860536e+01 -7.726669112940534774e-03 2.398899674131147908e+00 1.355938295447613307e+01 -2.097697245607493155e+00 5.942397591802332180e+00 1.357170752534155511e+01 1.211171804934336668e-02 5.376447239911394047e-03 1.583236001362718248e+01 -2.049219019999128921e+00 3.583994479949637935e+00 1.582726455081118289e+01 2.068309928576055778e+00 1.155900326678172441e+00 9.672681611204774654e+00 -1.733107819439639111e-02 4.779958224783883658e+00 9.669755956550792675e+00 1.092362444087868409e-02 2.740822299027081271e-02 2.326859994627398009e+01 2.057562941744154550e+00 3.587340139748147916e+00 2.328547446306630064e+01 2.078351276430812522e+00 1.202316922231824847e+00 2.555977149961386985e+01 -2.994949371092956586e-02 4.772794778727764253e+00 2.558749594716285358e+01 -2.285081991375853203e-02 2.399316740588499197e+00 1.941553291675664994e+01 -2.038171592260730858e+00 5.984175037798436847e+00 1.940965754682167344e+01
2.054879631440529320e+00 1.203836023139098765e+00 1.402431438282624621e+00 2.527897662551509966e-02 4.783624130687866405e+00 1.360076048697838713e+00 -1.744926783056871544e-02 7.142481544462565779e+00 7.389419035848746375e+00 2.055401312942727099e+00 3.599483518823845873e+00 7.374124422158119252e+00 -7.350797671697042665e-03 2.407542496739192739e+00 1.110839293004926098e+01 -2.015561484368725509e+00 5.996570702011330134e+00 1.105705756507619242e+01 2.082111871444094930e+00 1.186282086417186354e+00 1.707378155560850530e+01 3.102100974222994287e-02 4.787350170592073795e+00 1.706598605176936800e+01 4.529706841932998676e-03 9.680935955570315471e-03 2.079357998273589558e+01 2.065549058179504183e+00 3.577692838024742361e+00 2.077697451060187817e+01 3.961391697565579822e-03 2.388758537744646748e+00 2.680365301251543642e+01 -2.086609409226518608e+00 5.960736523818522592e+00 2.684051749850481627e+01 2.033343949023162178e+00 1.153793139705243442e+00 3.874541532857792347e+00 -2.251701859623468291e-02 4.785611108460983587e+00 3.836785927420029996e+00 -1.699860579418434325e-02 2.384957817577018080e+00 6.116262972860088354e+00 -2.062769564353764462e+00 6.003675925949736758e+00 6.106197430172673357e+00 -4.101301948190748448e+00 7.149471687473519133e+00 2.917750914892464564e+01 2.056738802269735267e+00 3.580227328322333147e+00 2.915500448195252758e+01 -9.286674819392810518e-03 2.400749658995020575e+00 1.355730294528768276e+01 -2.103417207861689509e+00 5.935907558490101543e+00 1.357165753053146595e+01 1.461170993248578007e-02 6.446464052686637011e-03 1.583315001653284604e+01 -2.045009019004946360e+00 3.583884503923037368e+00 1.582711456130360972e+01 2.068069982092349601e+00 1.148170314744277887e+00 9.669081633268412190e+00 -2.069106815374283440e-02 4.779988192912120404e+00 9.665525948344424023e+00 1.318359467963266946e-02 3.294823322781854219e-02 2.326761993550604757e+01 2.055142933091956614e+00 3.587910132194686241e+00 2.328768445554982591e+01 2.080151267407309490e+00 1.203696933904719213e+00 2.556019149992057393e+01 -3.589950062479015103e-02 4.771514761601867605e+00 2.559342593653632747e+01 -2.741083854720333113e-02 2.401216723378018170e+00 1.941868290017373866e+01 -2.031851608664100528e+00 5.986165080334217237e+00 1.941166755625998164e+01
2.052489608487294337e+00 1.205336026565077878e+00 1.408331428114840023e+00 2.951897524459871913e-02 4.784324152021978804e+00 1.358966056890195118e+00 -2.031924824380340611e-02 7.138131534647812693e+00 7.391749041655654828e+00 2.053001299311882466e+00 3.601983503855981095e+00 7.373764409036480671e+00 -8.560822406774526439e-03 2.410482499040273563e+00 1.111157291851339401e+01 -2.006531494194899956e+00 6.000280740194279261e+00 1.105221757602326527e+01 2.084251882073548501e+00 1.184852095989365361e+00 1.707281156496792462e+01 3.624100783489670602e-02 4.788640194096716485e+00 1.706367606060114284e+01 5.389695543496232297e-03 1.129094331907102948e-02 2.079438998009753803e+01 2.064879068786956484e+00 3.576582829077874948e+00 2.077524451223452573e+01 4.661398322499240611e-03 2.388518535452517799e+00 2.680148301490918428e+01 -2.089569406252166583e+00 5.958546518434783223e+00 2.684453749776672282e+01 2.027233980690350101e+00 1.146873114531592686e+00 3.878041538366880481e+00 -2.632701742157644506e-02 4.786641077699196778e+00 3.833825915197031531e+00 -1.980859974787461258e-02 2.384147799644331656e+00 6.115702968443375909e+00 -2.061729586427497818e+00 6.008485924920324628e+00 6.103787418593791259e+00 -4.095031928426847045e+00 7.146281722280229509e+00 2.917697917341457980e+01 2.054688817363729214e+00 3.579397303964352961e+00 2.915074447943093361e+01 -1.083668086495547488e-02 2.402599644327442885e+00 1.355536293612330567e+01 -2.109127169851366723e+00 5.929417524913880300e+00 1.357149753574523210e+01 1.711170204201850620e-02 7.506480660976051940e-03 1.583387001946780082e+01 -2.040789017987702181e+00 3.583774527925469577e+00 1.582695457181997867e+01 2.067820034839807253e+00 1.140560302840834428e+00 9.665511654956436161e+00 -2.398105798840624928e-02 4.779988161505162481e+00 9.661315940394882062e+00 1.545356482069039014e-02 3.848824364134074277e-02 2.326667992476227198e+01 2.052712924713748777e+00 3.588470124320646271e+00 2.328980444803844208e+01 2.081941258754590240e+00 1.205016945491462099e+00 2.556060150037893308e+01 -4.178950763695862131e-02 4.770284744590424175e+00 2.559927592590812395e+01 -3.193085692085633615e-02 2.403096706224393309e+00 1.942177288374595534e+01 -2.025591624880542341e+00 5.988135122434687929e+00 1.941364756561161897e+01
2.050139585760955008e+00 1.206826030018229412e+00 1.414161418073035525e+00 3.374897396938673910e-02 4.785014173239583002e+00 1.357836065087506316e+00 -2.314922903990773717e-02 7.133851525035976415e+00 7.394069047353881707e+00 2.050601285907390103e+00 3.604473488683575422e+00 7.373334395944090680e+00 -9.780846654614244046e-03 2.413392500902989291e+00 1.111462290704115219e+01 -1.997551504152727420e+00 6.003950778526901289e+00 1.104752758696638892e+01 2.086401892479803344e+00 1.183452105678997279e+00 1.707186157426367501e+01 4.146100598421360167e-02 4.789920217602017694e+00 1.706136606946202861e+01 6.279684253747684977e-03 1.289095091590052380e-02 2.079521997756095431e+01 2.064179078880849172e+00 3.575502820368166024e+00 2.077365451370677363e+01 5.381405047387206701e-03 2.388248533365252779e+00 2.679934301743903546e+01 -2.092579403559991391e+00 5.956396512820488987e+00 2.684857749679033745e+01 2.021134012236436295e+00 1.139953089562754984e+00 3.881591543900178909e+00 -3.015701621380891678e-02 4.787661046850870683e+00 3.830875902954820500e+00 -2.260859382291654021e-02 2.383337781916316622e+00 6.115192964050730318e+00 -2.060759607980336305e+00 6.013205923485027249e+00 6.101377407109096929e+00 -4.088821909003342192e+00 7.143141756798274677e+00 2.917646919761264002e+01 2.052678832567100375e+00 3.578527279986103871e+00 2.914653447712311163e+01 -1.239668723999841869e-02 2.404439630071069978e+00 1.355358292696396738e+01 -2.114847131537916702e+00 5.922937490840558539e+00 1.357118754090522472e+01 1.962169440207327947e-02 8.556497093517301256e-03 1.583451002245621275e+01 -2.036549016923278277e+00 3.583664551985662250e+00 1.582677458238444324e+01 2.067560086702441513e+00 1.133090290967877722e+00 9.661971676210260540e+00 -2.718104753413507976e-02 4.779938130620420722e+00 9.657105932809059823e+00 1.772353483984936626e-02 4.402825420221244401e-02 2.326578991401849095e+01 2.050262916411361047e+00 3.589050116097409315e+00 2.329184444042011748e+01 2.083711250482268795e+00 1.206266956992736450e+00 2.556102150099406956e+01 -4.760951471367642213e-02 4.769094727780782250e+00 2.560505591533168968e+01 -3.640087504442681560e-02 2.404966689127078450e+00 1.942478286746817773e+01 -2.019391641050244157e+00 5.990105164129187365e+00 1.941560757481797950e+01
2.047809563145559952e+00 1.208326033382565834e+00 1.419921408050300871e+00 3.797897284824403030e-02 4.785694194340078589e+00 1.356666073313938625e+00 -2.596921015114618883e-02 7.129621515511682439e+00 7.396399052929543139e+00 2.048181272613339043e+00 3.606973473190633328e+00 7.372834382774042794e+00 -1.099087040066251512e-02 2.416282502355417972e+00 1.111751289565156675e+01 -1.988581514416074336e+00 6.007610817241136658e+00 1.104298759791434215e+01 2.088571902861039664e+00 1.182052115514736990e+00 1.707092158360779877e+01 4.669100421444043192e-02 4.791190241136650485e+00 1.705904607837619835e+01 7.209672914775339114e-03 1.449095880401876993e-02 2.079606997512100719e+01 2.063459088519268736e+00 3.574442811953558063e+00 2.077220451507207599e+01 6.111411896504082529e-03 2.387948531395542417e+00 2.679722302008083901e+01 -2.095659401256151799e+00 5.954296506918240972e+00 2.685265749549805392e+01 2.014994043738759455e+00 1.133003064625956346e+00 3.885231549424759123e+00 -3.400701489073416905e-02 4.788661015886705563e+00 3.827925890722693403e+00 -2.539858792746018529e-02 2.382507764422259200e+00 6.114742959740739892e+00 -2.059859629089522581e+00 6.017865921526681205e+00 6.098927395630727943e+00 -4.082651889953899271e+00 7.140061791114333367e+00 2.917596922153786565e+01 2.050698847870318087e+00 3.577627256270964118e+00 2.914235447497560116e+01 -1.395669402659883117e-02 2.406279616313161451e+00 1.355197291780453739e+01 -2.120607092549172457e+00 5.916407456066893111e+00 1.357071754611473224e+01 2.215168695472097271e-02 9.606513408276456598e-03 1.583507002549294640e+01 -2.032249015869574738e+00 3.583564576335553920e+00 1.582657459306435399e+01 2.067280137844587973e+00 1.125740279008810019e+00 9.658441697064306553e+00 -3.031103670871003811e-02 4.779828100112621492e+00 9.652885925567929348e+00 2.002350453907668706e-02 4.959826511365121593e-02 2.326495990325931373e+01 2.047792908373353704e+00 3.589630107437052686e+00 2.329377443275342685e+01 2.085471242648429424e+00 1.207436968466479632e+00 2.556145150181943038e+01 -5.338952196111785425e-02 4.767954711057543982e+00 2.561078590470524574e+01 -4.084089299030720793e-02 2.406826672057958305e+00 1.942774285129207001e+01 -2.013231657090945426e+00 5.992065205504389702e+00 1.941753758395668683e+01
2.163539999999999797e+00 1.176239999999999952e+00 1.402819999999999956e+00 1.352599999999999913e-01 4.691069999999999851e+00 1.402970000000000050e+00 -3.845940000000000136e+00 7.055410000000000181e+00 7.584509999999999863e+00 -1.818869999999999987e+00 3.544919999999999849e+00 7.576970000000000205e+00 3.487899999999999889e-01 2.383459999999999912e+00 1.140179999999999971e+01 -1.678840000000000110e+00 5.891650000000000276e+00 1.140128999999999948e+01 2.581630000000000091e+00 1.236730000000000107e+00 1.756622000000000128e+01 5.701800000000000201e-01 4.744279999999999831e+00 1.756540999999999997e+01 7.080699999999999772e-01 7.099969999999999892e+00 2.138163000000000125e+01 2.737709999999999866e+00 3.587359999999999882e+00 2.137361999999999895e+01 7.767100000000000115e-01 2.441650000000000098e+00 2.757748000000000133e+01 -1.252140000000000031e+00 5.949910000000000032e+00 2.758306999999999931e+01 2.229150000000000187e+00 1.181470000000000020e+00 3.957870000000000221e+00 2.007799999999999863e-01 4.699169999999999625e+00 3.964879999999999960e+00 2.181599999999999928e-01 2.370589999999999975e+00 6.287139999999999951e+00 -1.805139999999999967e+00 5.875029999999999752e+00 6.296969999999999956e+00 -3.254449999999999843e+00 7.134599999999999831e+00 3.000907000000000124e+01 -1.232450000000000045e+00 3.622419999999999973e+00 3.000748000000000104e+01 4.131199999999999872e-01 2.384790000000000187e+00 1.395682000000000045e+01 -1.603690000000000060e+00 5.904869999999999841e+00 1.395744999999999969e+01 4.622020000000000017e+00 5.985000000000000042e-02 1.627586000000000155e+01 2.600740000000000052e+00 3.570689999999999920e+00 1.627736000000000161e+01 2.385800000000000143e+00 1.206769999999999898e+00 9.965749999999999886e+00 3.662199999999999900e-01 4.724409999999999776e+00 9.962979999999999947e+00 -3.412459999999999827e+00 7.113850000000000229e+00 2.393616000000000099e+01 -1.393729999999999913e+00 3.603169999999999984e+00 2.393815000000000026e+01 2.816840000000000011e+00 1.267149999999999999e+00 2.628305999999999898e+01 7.973799999999999777e-01 4.772840000000000416e+00 2.628025999999999840e+01 5.751699999999999591e-01 2.414610000000000145e+00 1.994929000000000130e+01 -1.442839999999999900e+00 5.926199999999999690e+00 1.995807999999999893e+01
2.165669999999999984e+00 1.179980000000000029e+00 1.402449999999999974e+00 1.401399999999999868e-01 4.692319999999999602e+00 1.405920000000000059e+00 1.973799999999999999e-01 3.113000000000000142e-02 7.582749999999999879e+00 -1.815099999999999936e+00 3.549249999999999794e+00 7.574939999999999785e+00 3.480300000000000060e-01 2.384320000000000217e+00 1.140051000000000059e+01 -1.674430000000000085e+00 5.890049999999999564e+00 1.139980000000000082e+01 2.583209999999999784e+00 1.237149999999999972e+00 1.756399000000000044e+01 5.692000000000000393e-01 4.738679999999999559e+00 1.756512000000000029e+01 7.090199999999999836e-01 7.098390000000000200e+00 2.138216999999999857e+01 2.734399999999999942e+00 3.588239999999999874e+00 2.137948000000000093e+01 7.775499999999999634e-01 2.438450000000000006e+00 2.757730000000000103e+01 -1.254650000000000043e+00 5.948579999999999757e+00 2.758214999999999861e+01 2.227700000000000014e+00 1.188549999999999995e+00 3.958959999999999813e+00 2.058800000000000074e-01 4.700199999999999712e+00 3.957870000000000221e+00 2.119000000000000050e-01 2.367039999999999811e+00 6.288109999999999644e+00 -1.809879999999999933e+00 5.875930000000000319e+00 6.296700000000000408e+00 -3.252219999999999889e+00 7.130370000000000097e+00 3.001166999999999874e+01 -1.227020000000000000e+00 3.614720000000000155e+00 3.000566999999999851e+01 4.063100000000000045e-01 2.391259999999999941e+00 1.395573000000000086e+01 -1.600989999999999913e+00 5.905079999999999885e+00 1.395653000000000077e+01 5.741500000000000492e-01 7.085250000000000270e+00 1.627583999999999875e+01 2.599509999999999987e+00 3.570969999999999978e+00 1.628243000000000151e+01 2.386890000000000178e+00 1.207440000000000069e+00 9.960919999999999774e+00 3.724899999999999878e-01 4.723010000000000375e+00 9.961840000000000472e+00 6.279500000000000082e-01 8.989999999999999380e-02 2.394313999999999965e+01 -1.392179999999999973e+00 3.602899999999999991e+00 2.393898000000000081e+01 2.816510000000000069e+00 1.265689999999999982e+00 2.628508000000000067e+01 7.951799999999999979e-01 4.774160000000000181e+00 2.627565999999999846e+01 5.755900000000000460e-01 2.412479999999999958e+00 1.995272999999999897e+01 -1.449449999999999905e+00 5.924030000000000129e+00 1.995858000000000132e+01
2.167769999999999975e+00 1.183720000000000105e+00 1.402209999999999956e+00 1.450200000000000100e-01 4.693550000000000111e+00 1.409010000000000096e+00 4.391569999999999752e+00 3.538000000000000173e-02 7.580980000000000274e+00 -1.811369999999999925e+00 3.553560000000000052e+00 7.572910000000000252e+00 3.472399999999999931e-01 2.385159999999999947e+00 1.139931999999999945e+01 -1.670009999999999994e+00 5.888429999999999609e+00 1.139841999999999977e+01 2.584729999999999972e+00 1.237510000000000110e+00 1.756174000000000035e+01 5.681100000000000039e-01 4.732999999999999652e+00 1.756484000000000023e+01 7.099400000000000155e-01 7.096779999999999866e+00 2.138287000000000049e+01 2.731020000000000003e+00 3.589109999999999800e+00 2.138553999999999888e+01 7.783200000000000118e-01 2.435179999999999900e+00 2.757711000000000112e+01 -1.257249999999999979e+00 5.947189999999999976e+00 2.758119999999999905e+01 2.226220000000000088e+00 1.195710000000000051e+00 3.959830000000000183e+00 2.110200000000000131e-01 4.701240000000000308e+00 3.950559999999999850e+00 2.056999999999999940e-01 2.363510000000000222e+00 6.289100000000000357e+00 -1.814550000000000107e+00 5.876929999999999765e+00 6.296420000000000350e+00 -3.249899999999999789e+00 7.126140000000000363e+00 3.001434000000000069e+01 -1.221459999999999990e+00 3.607009999999999827e+00 3.000390000000000157e+01 3.994199999999999973e-01 2.397800000000000153e+00 1.395439000000000007e+01 -1.598270000000000080e+00 5.905280000000000307e+00 1.395534999999999926e+01 5.721899999999999764e-01 7.082119999999999749e+00 1.627583999999999875e+01 2.598390000000000200e+00 3.571309999999999985e+00 1.628753000000000029e+01 2.388049999999999784e+00 1.208150000000000057e+00 9.956120000000000303e+00 3.788799999999999946e-01 4.721639999999999837e+00 9.960750000000000881e+00 4.819259999999999877e+00 9.453000000000000291e-02 2.394996000000000080e+01 -1.390619999999999967e+00 3.602629999999999999e+00 2.393958999999999904e+01 2.816279999999999895e+00 1.264250000000000096e+00 2.628714000000000084e+01 7.930399999999999672e-01 4.775559999999999583e+00 2.627104999999999890e+01 5.760899999999999910e-01 2.410369999999999902e+00 1.995625000000000071e+01 -1.456050000000000066e+00 5.921899999999999942e+00 1.995911999999999864e+01