-1.001986736300000018e+02
-1.001972305400000067e+02
-1.001922861799999964e+02
-1.001837769499999951e+02
-1.001717329699999937e+02
-1.001563237000000015e+02
-1.001378025900000068e+02
-1.001164904700000022e+02
-1.000926749099999995e+02
-1.000665510999999981e+02
-9.987080760000000623e+01
-9.986652843000000246e+01
-9.986033908999999653e+01
-9.985211223000000302e+01
-9.984175865999999644e+01
-9.982928149999999334e+01
-9.981477739000000327e+01
-9.979840366999999901e+01
-9.978028014999999584e+01
-9.976047918000000436e+01
-1.000261339300000003e+02
-1.000240626100000014e+02
-1.000185281800000041e+02
-1.000095526599999971e+02
-9.999723299000000054e+01
-9.998178509999999619e+01
-9.996356188999999404e+01
-9.994296735000000353e+01
-9.992034886999999799e+01
-9.989600459999999771e+01
-1.001243331400000045e+02
-1.001216034299999933e+02
-1.001149252299999972e+02
-1.001042641300000042e+02
-1.000896611799999931e+02
-1.000713197799999961e+02
-1.000495535900000021e+02
-1.000247590599999938e+02
-9.999730098999999939e+01
-9.996748263000000634e+01
-9.998313665999999955e+01
-9.998036120999999810e+01
-9.997393425999999295e+01
-9.996381766000000368e+01
-9.995003434999999570e+01
-9.993275782999999990e+01
-9.991227279999999666e+01
-9.988894654000000628e+01
-9.986313185000000203e+01
-9.983512700999999367e+01
