6.541832512850308257e-03 3.705214952989374557e-03 6.043200495206127454e-02 6.541832534594339311e-03 3.705214926626214204e-03 6.042300495206133493e-02 -1.391287572437553167e-02 -8.091174467447396351e-03 -3.202000991279373848e-02 -1.391087572534197361e-02 -8.090174461709067136e-03 -3.202200991089100557e-02 7.946865669087029710e-03 4.776175370702810154e-03 4.413800520940856092e-02 7.947865718373480631e-03 4.775175323774925699e-03 4.412000521475393372e-02 -1.348189770566628892e-02 -7.873146850101563066e-03 -2.344500951014278842e-02 -1.348089767280866332e-02 -7.872146891171011990e-03 -2.346100951065593909e-02 7.574772349029730047e-03 4.313289612914073326e-03 8.387500566661978962e-02 7.574772331634505029e-03 4.316289612914010407e-03 8.387500565783202744e-02 -1.269691229109438414e-02 -7.373128129621993321e-03 -1.860800907825534145e-02 -1.269791227998074735e-02 -7.377128120774123499e-03 -1.860300906895434939e-02 -1.097929222675144475e-03 -6.480876237653537039e-04 -2.774000075439649396e-02 -1.097929276310420166e-03 -6.450875798268161437e-04 -2.772500076318436604e-02 1.688900455190042380e-02 9.802023500168148204e-03 -2.540898790877035851e-02 1.689000458379164363e-02 9.799023488391185588e-03 -2.541498789756656621e-02 -8.396904921402407670e-03 -4.769130438423772878e-03 -2.790800631722423555e-02 -8.396904916570401348e-03 -4.769130444282253245e-03 -2.791000631722422368e-02 -1.497007885322405515e-03 -8.429931933177110120e-04 5.286998852591377925e-03 -1.497007987277749639e-03 -8.399930907943723791e-04 5.321998843803363646e-03 1.586003285443431110e-02 9.232987218905535851e-03 -3.575798872800022704e-02 1.585703270367575662e-02 9.253987236660727450e-03 -3.574598879676260665e-02 -9.128976721143803111e-03 -5.458042786730278768e-03 3.463993932303593114e-03 -9.128976689735758543e-03 -5.463042789659412930e-03 3.462993946949870661e-03 -1.132050629261994188e-03 -6.629405182166262867e-04 2.254699920703627167e-02 -1.132050640858810577e-03 -6.609405182166686304e-04 2.254699920117776354e-02 1.519098150471096149e-02 8.813048550516637894e-03 -1.349598911416892248e-02 1.519098151775738134e-02 8.812048541728938894e-03 -1.349898911123964713e-02 -8.637932342553191617e-03 -4.922097513932927743e-03 -1.619100645138555825e-02 -8.635932308729183521e-03 -4.927097508194470954e-03 -1.619300643190730096e-02
2.585199304043363927e-02 -3.203819137231399532e-03 1.057007184333580777e-02 -5.550091656779523180e-03 -1.868907914013914632e-03 4.242299206574522835e-02 2.595931691800236561e-03 2.537291949448104017e-02 -3.262206805182790714e-02 -1.331180361489749456e-02 -1.203023071851132449e-02 -5.241299692230724089e-02 9.796140327085112523e-03 -1.276602358851862407e-02 -2.744393893794115635e-02 -1.901219023380321463e-02 -8.936816764579037439e-03 1.001879802452869950e-01 -1.106298178456537398e-02 1.938900135865915869e-03 -1.219303240779396301e-02 -2.071787465250061328e-02 -1.471516865704963935e-02 -1.656600695031414452e-02 1.906180849366140295e-02 4.243397365618170494e-04 7.824804481096606090e-02 1.005588998172033061e-03 1.533139636502788179e-02 1.333219575211268826e-01 -7.265889138639457755e-03 -1.837304737716715514e-02 -1.790963735359372370e-03 -2.851106244056328745e-02 1.621179641344577815e-02 -1.306411637116297077e-02 2.215997505674325262e-03 3.725989678920763222e-03 -7.910005560517711573e-03 -2.122933797114968674e-03 -4.297062367728772710e-03 -1.708899254201125262e-02 2.091597901079902955e-02 6.131103624995946216e-03 -6.026967426440596638e-03 -3.495844293341128419e-03 -1.667509182638476917e-02 -2.442795960080067566e-02 -3.185305764907931519e-02 1.698376579856048299e-02 -1.690012670674621506e-02 6.211098055793200755e-03 -1.365998683968516411e-02 -7.801944980641051762e-03 -5.821031652683385585e-04 -3.127856303325938191e-03 5.020800775624072870e-02 -1.688909809108545945e-03 -1.091183775216244975e-04 -3.706900376104520917e-02 1.441610224498129228e-02 5.004924438378072563e-03 -5.433197983166425382e-02 1.872903426725692697e-02 8.861004756773205315e-03 -3.544998070685453223e-02 -1.138425773902270767e-02 3.688498717334429827e-02 1.815586445074231572e-02 1.791406186093152594e-02 -1.510686492460352158e-02 1.065208753214609734e-02 7.679351563852390402e-04 -3.281893855249252197e-03 3.471601146903924295e-02 -3.497982107009487383e-03 1.669946282761661802e-03 -1.141401334289267322e-02 8.301112549356620338e-03 -1.477498445483834896e-02 -1.112493666508709324e-02 3.441396154814303776e-02 2.175809320307465350e-02 -3.630398059069073202e-02 5.373139817395648429e-03 -9.616070761961468746e-03 -3.479295885094665225e-02 -2.745490270361727880e-02 -7.141226957453189299e-03 -2.313304541293801850e-02
4.373414589434147792e-02 -9.329857708377657308e-03 -3.799486700903004915e-02 -1.702901782348836823e-02 -7.304025782479810561e-03 2.490698025325803130e-02 1.923774168970532675e-02 5.809801629273202844e-02 -3.251912370482357151e-02 -1.286573188617197612e-02 -1.597028739965541608e-02 -7.264598430337045054e-02 1.132841245119914873e-02 -2.968622568643822235e-02 -9.946988567314919705e-02 -4.662524615263194394e-02 -2.355080633848542424e-02 1.584069563403502634e-01 -8.285063908927949028e-03 1.164094760703098669e-02 -1.486054115885111293e-03 -2.750785131715130852e-02 -2.142418915505975296e-02 -1.012300370254388092e-02 3.071584256825608469e-02 -3.217608398134357787e-03 7.288508363525669775e-02 -6.282595480960264864e-03 2.677449732820803147e-02 1.822159063936087675e-01 -1.479863466780103600e-03 -2.957496620078472332e-02 1.446808305692675288e-02 -4.479821148784954299e-02 3.932372020282023928e-02 -6.841223421305002612e-03 5.365924238372676847e-03 8.153065652795976267e-03 1.179098908188974323e-02 -3.215936458077677754e-03 -8.141038455054264850e-03 -6.761983922706004541e-03 2.489495041490227822e-02 2.846184461579284643e-03 1.369305180922870610e-02 -2.443469230117571722e-02 -4.342120948941739778e-02 -2.314793184332011172e-02 -5.369620455905910889e-02 3.811166872864341082e-02 -6.800241368497435962e-03 2.030310216320731567e-02 -2.270784649948093953e-02 1.221311556918945086e-02 2.328004854586491850e-04 -5.568717599978304823e-03 9.594601687524950684e-02 -1.478812104961376318e-03 9.497569355218796411e-04 -8.005100635545843446e-02 1.294717067493054638e-02 9.258616300549357865e-04 -7.286597143218644101e-02 2.160603718380064292e-02 8.323021684883620194e-03 -3.536597218012225291e-02 -1.339153755858531539e-02 7.998801177557265940e-02 3.052773334212434755e-02 4.491710932907132942e-02 -2.567569160036760334e-02 1.637018373027823714e-02 2.652921536367869749e-03 -5.875848175603703809e-03 4.657902362157380349e-02 -5.806912890395460498e-03 3.881833423036077420e-03 -4.537202540067127032e-02 1.193242336242735218e-03 -3.832901743831318431e-02 -8.314884842286292613e-03 5.382793936546417107e-02 3.504413926484016562e-02 -5.900897260463361382e-02 2.014421386520020771e-02 -1.463603960025644524e-02 -5.339390845941885400e-02 -4.645487181801694065e-02 -9.655356899671802690e-03 -2.988308395249018173e-02
6.036028967909409793e-02 -1.441889985686196224e-02 -8.529481193351463875e-02 -2.769694565531748143e-02 -1.273613695069725042e-02 8.072970391341353913e-03 3.595455648045766534e-02 9.002111335306456352e-02 -3.247517682735973771e-02 -1.262465986654533363e-02 -1.978634649390538860e-02 -9.329697254293495279e-02 1.258767680064722810e-02 -4.550142770940877185e-02 -1.709298363047478397e-01 -7.393630100360167046e-02 -3.901478948033194200e-02 2.182239356548914266e-01 -5.296145909602800565e-03 2.129999645398495192e-02 9.272924811753091925e-03 -3.391182812773183008e-02 -2.804720784255753177e-02 -3.825999774118586140e-03 4.266487443510074556e-02 -6.667553495346538635e-03 6.797512260984733823e-02 -1.429878245680106172e-02 3.871859357509649380e-02 2.309408520396934450e-01 4.457163548378662021e-03 -4.096188447690756601e-02 3.061513075594294447e-02 -6.138135958179020968e-02 6.222164262443649618e-02 -4.993305597284982290e-04 8.483850967199035517e-03 1.260414127708874184e-02 3.143598357668395821e-02 -4.377938347849768576e-03 -1.209301511822223965e-02 3.505024846256420655e-03 2.870892037520192397e-02 -8.973636159378271706e-05 3.317306962395436681e-02 -4.598553860183289543e-02 -7.033633158279056774e-02 -2.216890506937761740e-02 -7.418234589391067835e-02 5.864557694358508988e-02 2.417648988218491519e-03 3.395710728921930155e-02 -3.188470902704369780e-02 3.211617543869767222e-02 1.065702588965590459e-03 -8.203575552506605847e-03 1.427900266060140033e-01 -7.387171946803927462e-04 2.529635046358472746e-03 -1.231270091955397050e-01 1.140824032787051724e-02 -3.356201639812249685e-03 -9.141896260718818112e-02 2.440303938665933786e-02 7.876038374672907419e-03 -3.520496411323029151e-02 -1.528381973716725836e-02 1.240320332893131705e-01 4.161759975491725883e-02 7.198616422159456740e-02 -3.727451965386999189e-02 2.148728310501067315e-02 4.606907363081883498e-03 -8.379802057785367200e-03 5.845503567717941218e-02 -8.116844450761282262e-03 6.027721963541563151e-03 -7.885003726753959941e-02 -6.187628206877547783e-03 -6.177905233576480581e-02 -5.617833983688707775e-03 7.332991654157343386e-02 4.852618523637759057e-02 -8.191896498009876293e-02 3.571329017534431022e-02 -1.991200475462067201e-02 -7.231685539003766816e-02 -6.567083850190803818e-02 -1.253448847515666216e-02 -3.676312194472167866e-02
7.604542912377730557e-02 -1.889194653016443987e-02 -1.322767609358574126e-01 -3.829987357991335856e-02 -1.822224724991673706e-02 -8.593039155360396655e-03 5.392136354139426269e-02 1.230452192929945981e-01 -3.187423015502761220e-02 -1.179158610401120910e-02 -2.396840169560192357e-02 -1.137909582801285568e-01 1.364894075729853641e-02 -6.089263338499067285e-02 -2.432447886567045692e-01 -1.027513535646647352e-01 -5.573577528238015527e-02 2.801099150178395503e-01 -2.295230772770947159e-03 3.128604654221275871e-02 2.043190281051234652e-02 -4.089180526010709887e-02 -3.481722844633568931e-02 2.957003193293986001e-03 5.467990776024538729e-02 -1.010650005527184182e-02 6.243516171168171647e-02 -2.301497054692365832e-02 5.128568273425443413e-02 2.786317941696633271e-01 1.077818922748564542e-02 -5.245879813323885144e-02 4.757917970491513937e-02 -7.776751145390442543e-02 8.560156738051549752e-02 6.249561365880951236e-03 1.154677867691317542e-02 1.706521532290239396e-02 5.065097790930951638e-02 -5.571939518617639864e-03 -1.611399235359702725e-02 1.364003374002731479e-02 3.241988810311133284e-02 -2.615657957756954873e-03 5.259308598884232522e-02 -6.803138375726916487e-02 -9.742645670457415752e-02 -2.124387897872968139e-02 -9.336548107041624245e-02 7.855448964108403820e-02 1.058654432374272342e-02 4.712011324779832172e-02 -4.111557503139750408e-02 5.180423428014532816e-02 1.947604480813437807e-03 -1.092443235970101852e-02 1.899280367070765863e-01 6.073739543695427312e-04 4.556518088767383054e-03 -1.657190118809133139e-01 9.769310130133513140e-03 -7.715265129228564278e-03 -1.098489537982359626e-01 2.707604130298336617e-02 7.448054559296102446e-03 -3.497095640157539542e-02 -1.708110291312346998e-02 1.690480497297417173e-01 5.078746354999503360e-02 9.906922687964597740e-02 -4.982635034155376980e-02 2.567738530516647938e-02 6.569891488925845568e-03 -1.080875435285546735e-02 7.085504753483246043e-02 -1.036177860349003950e-02 8.018615113689068347e-03 -1.108830485233463087e-01 -1.380249880795626424e-02 -8.513908915246695686e-02 -3.112783954059868911e-03 9.289089302186839814e-02 6.229323039005014995e-02 -1.052249580478506752e-01 5.205136913487663775e-02 -2.547696663047224058e-02 -9.164279961619797854e-02 -8.514380215370274951e-02 -1.582362233467136600e-02 -4.391415935687269234e-02
9.046455894267055320e-02 -2.249699497578865753e-02 -1.773577155394357729e-01 -4.836480296570618009e-02 -2.372635253145712053e-02 -2.461104734954278062e-02 7.191617602138752896e-02 1.550993256443062851e-01 -3.118828057367455109e-02 -1.093951220712945094e-02 -2.823445635946649282e-02 -1.341389437253605599e-01 1.452919547086091272e-02 -7.534183552586691535e-02 -3.139947442053174775e-01 -1.310814050172887379e-01 -7.308875517305848946e-02 3.430538974038135347e-01 7.856845312302069943e-04 4.125909698300866263e-02 3.155288104062878296e-02 -4.772178336564492085e-02 -4.144024803390086720e-02 9.790006092502282278e-03 6.683693976818512461e-02 -1.338744530555497150e-02 5.706120069377059595e-02 -3.244115792967115774e-02 6.427076398024211823e-02 3.250267333598548247e-01 1.726321601602555031e-02 -6.400371184627551280e-02 6.419922919072294787e-02 -9.421666065974680648e-02 1.085124918357272678e-01 1.302045451308606397e-02 1.453470676061163931e-02 2.157928810779780049e-02 6.958397190548758215e-02 -6.817940729972459847e-03 -2.022296922261956204e-02 2.400304276594041747e-02 3.598585507190840693e-02 -4.793581920819430138e-03 7.149210098403875613e-02 -9.037422931613853239e-02 -1.243115845005212106e-01 -2.064385420612604646e-02 -1.110656093333424882e-01 9.771940778576415632e-02 1.767944542153079834e-02 5.970112031533751640e-02 -5.033644582523077310e-02 7.100929168620963294e-02 2.796507589823287159e-03 -1.384228944902750856e-02 2.370350473054763096e-01 2.458461524361258300e-03 7.089404841459245703e-03 -2.080440148284183055e-01 8.074379079080781438e-03 -1.205632803530018275e-02 -1.279689451773067255e-01 2.966704352565932915e-02 6.983070157142834411e-03 -3.477494877964676379e-02 -1.879538350305189759e-02 2.144530607812331624e-01 5.795332640611695202e-02 1.258872961401714952e-01 -6.308518560046105783e-02 2.883148893609448551e-02 8.544875982481121152e-03 -1.323070707337889625e-02 8.308605940097567311e-02 -1.253871478371706115e-02 9.962511446752806907e-03 -1.419640594771997832e-01 -2.159537113982878259e-02 -1.081981270188764888e-01 -6.137352361774089200e-04 1.123808685130473772e-01 7.618627544547867947e-02 -1.284239516562187544e-01 6.904944990400108118e-02 -3.128192518611043471e-02 -1.111417415447744084e-01 -1.046747635687510086e-01 -1.946475676778368705e-02 -5.114619587806209372e-02
1.034786803877549566e-01 -2.536704658263145423e-02 -2.207366756904784455e-01 -5.764473446936722867e-02 -2.906145188159271406e-02 -4.015805414222677755e-02 8.950099691483248687e-02 1.854224315867791517e-01 -2.983032691234489137e-02 -1.020744247299809442e-02 -3.220550874597889746e-02 -1.534719303246463717e-01 1.514943642197063775e-02 -8.858003100180494860e-02 -3.819547039294265978e-01 -1.593064508759154951e-01 -9.142773430550489577e-02 4.060488829317001058e-01 4.216602438206071106e-03 5.085614894064916652e-02 4.249886121773881198e-02 -5.399776316722064429e-02 -4.771326481339546038e-02 1.648500930492758851e-02 7.883797018833477166e-02 -1.637539159512215250e-02 5.164123844070396541e-02 -4.238034052829263432e-02 7.739783545288236866e-02 3.691006708946957260e-01 2.395724207686974333e-02 -7.518062605225291073e-02 8.023727810351978518e-02 -1.103358045625059541e-01 1.302684198945878447e-01 2.036835184082998185e-02 1.736763687712053125e-02 2.602235802843229015e-02 8.784596573516946505e-02 -8.175941032906612269e-03 -2.434694773700446166e-02 3.402605156520525920e-02 3.939382143621562860e-02 -6.613508583931260697e-03 8.978211454884443832e-02 -1.127140767773271851e-01 -1.507707129674874247e-01 -2.027883067413699045e-02 -1.272337291949205973e-01 1.159133314537730414e-01 2.362535306490410464e-02 7.161012747615126683e-02 -5.934132214716415082e-02 8.965734683602817612e-02 3.607413908710275716e-03 -1.679415041143306545e-02 2.828950579116740194e-01 4.722544376879516705e-03 9.981297184674055648e-03 -2.492780178297308580e-01 6.351446383232541362e-03 -1.628538989689328267e-02 -1.456769369521033197e-01 3.214404597495994914e-02 6.491085009027442593e-03 -3.460794135404821059e-02 -2.044366031587754526e-02 2.599420670453089222e-01 6.335418917562708752e-02 1.522053702172711520e-01 -7.693302545748023635e-02 3.140559308438756192e-02 1.054085993919471644e-02 -1.549966009686927840e-02 9.517207086968214325e-02 -1.466965379065298357e-02 1.179641224705945540e-02 -1.716110699977125842e-01 -2.944224552236964290e-02 -1.308401656436637694e-01 1.733312129749718222e-03 1.313408428406822870e-01 9.014331838855718648e-02 -1.512949467325277741e-01 8.645553112734936929e-02 -3.724688080184392763e-02 -1.304446820189353595e-01 -1.240167238439207481e-01 -2.336288968028563118e-02 -5.823323118982410423e-02
1.156777928453580628e-01 -2.757209669348737596e-02 -2.619916397585071999e-01 -6.686366818365357956e-02 -3.453654721356683860e-02 -5.445406037745342820e-02 1.077628169128346247e-01 2.160195406141146302e-01 -2.875937241800974667e-02 -8.970369193605909688e-03 -3.678755820721928832e-02 -1.728059139140812328e-01 1.571167009422295979e-02 -1.012412220452954259e-01 -4.482866654838458254e-01 -1.878134912289641245e-01 -1.108387142119015012e-01 4.693378709184250486e-01 7.369518854970326556e-03 6.066519960269340511e-02 5.355284010219818480e-02 -6.073874317607152323e-02 -5.406428348948080082e-02 2.345301162239682088e-02 9.082499929804997707e-02 -1.929233687616743048e-02 4.659327594584536381e-02 -5.280052175371285905e-02 9.088389994767363811e-02 4.117446062158397480e-01 3.070226744529628779e-02 -8.632353936199745059e-02 9.648032703994724457e-02 -1.259839478796816181e-01 1.521783488917755889e-01 2.710424985537703349e-02 2.016056981453492186e-02 3.060142334085674473e-02 1.046139590698436928e-01 -9.504940350110461372e-03 -2.854092678624927867e-02 4.380906063958459745e-02 4.266978630452471222e-02 -7.940437664517959598e-03 1.075081263506257045e-01 -1.350379258402763238e-01 -1.769098416492972947e-01 -2.001880804085482551e-02 -1.421328428846385383e-01 1.334232598055604124e-01 2.865826577775734338e-02 8.290413553090275611e-02 -6.826620368132657601e-02 1.077434002656930401e-01 4.426323548122152937e-03 -1.989201432696248439e-02 3.277310689648804676e-01 7.454619847556732265e-03 1.333419795060849546e-02 -2.885630210507618143e-01 4.543513008028656625e-03 -2.053145130814918243e-02 -1.630629288824623491e-01 3.439204906982287757e-02 5.946098122987230998e-03 -3.458093432645657078e-02 -2.205193433202909045e-02 3.056520685967581419e-01 6.706705139439586572e-02 1.781114496192760799e-01 -9.130087050373870972e-02 3.302369776054184247e-02 1.254084358906951482e-02 -1.764361360391578787e-02 1.070850819818998517e-01 -1.673159680717147685e-02 1.352431905400480749e-02 -1.993440800410379021e-01 -3.740012333221057195e-02 -1.528382052841149030e-01 3.953357341070493254e-03 1.501338177022488451e-01 1.039303609110961563e-01 -1.739789417143270123e-01 1.044686132692784070e-01 -4.337483286569274871e-02 -1.497366205491067193e-01 -1.434316814803150153e-01 -2.769402317135548700e-02 -6.537326540959910448e-02
1.268308965319621673e-01 -2.925614589790352313e-02 -3.008666078798032384e-01 -7.561760522138180618e-02 -3.989263665643572737e-02 -6.766006583784006656e-02 1.258216418544005066e-01 2.456836490297731879e-01 -2.749541568113185452e-02 -7.551295932064616863e-03 -4.156860519247562030e-02 -1.916548964808842681e-01 1.611089173341739150e-02 -1.131284048859684671e-01 -5.114956296993263818e-01 -2.164865254651882898e-01 -1.311266963316209955e-01 5.321998610730420687e-01 1.055243642365420037e-02 7.029725028638587891e-02 6.455481957761138867e-02 -6.738972464611378554e-02 -6.020330136251871717e-02 3.051701353630000696e-02 1.026660267532954474e-01 -2.201728234760822259e-02 4.176931253584768855e-02 -6.360269892128006530e-02 1.045409561053644715e-01 4.522985401131704442e-01 3.748529161201298587e-02 -9.715045321591628258e-02 1.124623751425534030e-01 -1.410740882194392865e-01 1.735822810717316811e-01 3.382215070021737935e-02 2.281950612660188504e-02 3.518848372850541528e-02 1.199659520573512078e-01 -1.088493780312262994e-02 -3.271390853904710544e-02 5.277006952924178512e-02 4.579075111967152723e-02 -9.032369231491555253e-03 1.246921370895627268e-01 -1.571027790838255833e-01 -2.023679685481732105e-01 -1.966278677665716026e-02 -1.555649470524728406e-01 1.497451934707454968e-01 3.260118551479890964e-02 9.352914238346814180e-02 -7.670709103961910469e-02 1.251654506613247841e-01 5.238238203123814739e-03 -2.290488496171823318e-02 3.702870797522075930e-01 1.056068903326302585e-02 1.687310719763868497e-02 -3.256930239130702009e-01 2.735578253796339208e-03 -2.473051137782975029e-02 -1.799909209504979291e-01 3.644805159209821288e-02 5.501110114866713391e-03 -3.455692805565706294e-02 -2.357819972363634289e-02 3.506900648911664975e-01 6.882291577971527685e-02 2.031795313701666716e-01 -1.057517226733129118e-01 3.386880065526635952e-02 1.449982765787311521e-02 -1.965856876350988158e-02 1.185150926171950891e-01 -1.871454330754800457e-02 1.511223152719398492e-02 -2.252990894834206725e-01 -4.534500436495370740e-02 -1.742812448433548045e-01 6.175400958071352447e-03 1.681857914534242160e-01 1.175964013339685782e-01 -1.959129381319301422e-01 1.226816952339018357e-01 -4.961678275338429062e-02 -1.686815582621274401e-01 -1.625286385764797559e-01 -3.217915439090655860e-02 -7.236729841000158481e-02
1.369309907189011633e-01 -3.030519415445471695e-02 -3.373335804052140507e-01 -8.369954479590312191e-02 -4.525871905679337837e-02 -7.979206964540308533e-02 1.433764754437494016e-01 2.737867550122881077e-01 -2.606445558935169965e-02 -6.195225477885912650e-03 -4.617465036955416269e-02 -2.097618797125149481e-01 1.636709816444426382e-02 -1.239685774774959975e-01 -5.709225973272397114e-01 -2.445475549651073555e-01 -1.519906765958165262e-01 5.944838543934845010e-01 1.383035624788423075e-02 7.970030039611898653e-02 7.517279995334087694e-02 -7.351870687913038271e-02 -6.610031698504927056e-02 3.731601600246891443e-02 1.143630531662877120e-01 -2.453122887368900870e-02 3.687034815989048697e-02 -7.477387051954748065e-02 1.182900027241854113e-01 4.903264728495068114e-01 4.436731535207357607e-02 -1.076333683968485194e-01 1.277954224766988389e-01 -1.558132229019469350e-01 1.940222152048989290e-01 4.051205521683762939e-02 2.523344541709727357e-02 3.974353930935825563e-02 1.341619445466853133e-01 -1.240193478259320366e-02 -3.694189127369563314e-02 6.166707824901999924e-02 4.873671496792164604e-02 -9.661303895865376232e-03 1.411651460494668386e-01 -1.790346344147407953e-01 -2.273860952383375822e-01 -1.949876648000595930e-02 -1.678570461076270559e-01 1.655641310834232716e-01 3.563510947945881108e-02 1.036071510282415564e-01 -8.519998337694645318e-02 1.419704998877555358e-01 5.968158828037173867e-03 -2.609776204462611188e-02 4.108040908687076165e-01 1.392075299752657327e-02 2.080502148525035719e-02 -3.616050273129234882e-01 9.286414802964596286e-04 -2.880756985115462063e-02 -1.963759133734886420e-01 3.839305485657419637e-02 4.913121568583367349e-03 -3.449692163414593005e-02 -2.514246150826483436e-02 3.957380565215739554e-01 6.906178004390722824e-02 2.277526176143872816e-01 -1.205945804050036207e-01 3.379490350238945756e-02 1.650281067377297115e-02 -2.158152303817343146e-02 1.301601030893045630e-01 -2.066849390592920277e-02 1.666814936205584380e-02 -2.494810987620199871e-01 -5.335388748893674093e-02 -1.952502855704741913e-01 8.125443031993759627e-03 1.859017658085960201e-01 1.311174400956705566e-01 -2.177489349365552274e-01 1.413817772405907836e-01 -5.589972957994811253e-02 -1.875454946784396448e-01 -1.816125934136607056e-01 -3.704928556734757988e-02 -7.937233025124998398e-02
-1.288489999999999913e-01 -6.379300000000000248e-02 3.499340000000000228e-01 -1.159509999999999985e-01 -7.090200000000000669e-02 3.861120000000000108e-01 -2.119199999999999973e-01 -1.107490000000000002e-01 -1.474499999999999943e-02 -2.303979999999999917e-01 -1.932899999999999896e-01 1.837799999999999850e-02 -1.189140000000000058e-01 -6.916200000000000125e-02 3.429159999999999986e-01 -1.029329999999999967e-01 -4.139899999999999830e-02 3.576179999999999914e-01 -2.124360000000000137e-01 -1.703099999999999892e-01 -8.814000000000000654e-03 -2.564319999999999933e-01 -1.086130000000000012e-01 -6.425000000000000155e-03 -1.039380000000000026e-01 -5.265500000000000042e-02 3.894029999999999991e-01 -1.307730000000000004e-01 -7.142800000000000538e-02 4.645150000000000112e-01 -2.142070000000000085e-01 -1.614939999999999987e-01 -8.358000000000000845e-03 -1.742740000000000122e-01 -1.223999999999999949e-01 -4.495600000000000290e-02 -2.127100000000000171e-02 -7.283000000000000411e-03 -4.789570000000000216e-01 -2.275500000000000092e-02 -5.984999999999999869e-03 -5.156439999999999912e-01 2.271980000000000111e-01 8.090899999999999481e-02 2.583500000000000033e-02 2.124479999999999980e-01 1.770100000000000007e-01 -2.111700000000000035e-02 1.511109999999999953e-01 1.027239999999999959e-01 8.646700000000000219e-02 1.430140000000000022e-01 8.897199999999999553e-02 9.781700000000000117e-02 -2.176799999999999916e-02 -2.674000000000000161e-03 -4.762250000000000094e-01 -2.281000000000000041e-02 -8.345999999999999253e-03 -4.851539999999999742e-01 2.173740000000000117e-01 1.024999999999999939e-01 2.465099999999999930e-02 2.537150000000000238e-01 1.318830000000000002e-01 -1.878799999999999915e-02 1.411300000000000054e-01 9.255800000000000138e-02 1.217020000000000046e-01 1.260590000000000044e-01 7.560000000000000053e-02 1.252820000000000045e-01 -2.401899999999999868e-02 -7.327000000000000179e-03 -4.555679999999999730e-01 -2.582200000000000120e-02 -1.307999999999999961e-02 -5.067920000000000202e-01 2.152560000000000029e-01 8.273500000000000298e-02 4.697099999999999886e-02 1.713280000000000081e-01 1.616190000000000127e-01 3.576900000000000218e-02 1.556059999999999943e-01 7.029100000000000625e-02 9.654699999999999394e-02 1.246120000000000005e-01 1.147050000000000014e-01 6.933599999999999486e-02
-1.273390000000000077e-01 -8.695700000000000651e-02 3.659129999999999883e-01 -1.120769999999999961e-01 -9.066000000000000447e-02 3.217110000000000247e-01 -2.184250000000000080e-01 -1.385480000000000045e-01 3.537999999999999912e-03 -2.658929999999999905e-01 -2.096909999999999885e-01 3.104499999999999968e-02 -1.129089999999999955e-01 -7.892899999999999916e-02 3.397970000000000157e-01 -1.008440000000000031e-01 -2.862599999999999867e-02 3.539289999999999936e-01 -2.270629999999999871e-01 -1.939220000000000110e-01 4.678999999999999999e-03 -2.623510000000000009e-01 -7.455299999999999427e-02 1.791399999999999937e-02 -1.183939999999999992e-01 -5.172500000000000014e-02 4.244999999999999885e-01 -1.201440000000000008e-01 -7.825200000000000211e-02 4.225809999999999844e-01 -2.220870000000000066e-01 -1.252250000000000030e-01 -1.079300000000000051e-02 -1.729400000000000104e-01 -1.334200000000000108e-01 -4.695499999999999674e-02 -2.087100000000000066e-02 -8.696000000000000604e-03 -4.870940000000000270e-01 -2.000400000000000095e-02 -7.395999999999999797e-03 -4.632240000000000246e-01 2.631589999999999763e-01 1.133019999999999999e-01 9.098000000000000184e-03 2.197900000000000131e-01 1.881289999999999907e-01 -2.766199999999999909e-02 1.504270000000000052e-01 1.084790000000000060e-01 8.178299999999999459e-02 1.341759999999999897e-01 1.258599999999999997e-01 1.019349999999999978e-01 -1.902699999999999877e-02 -4.925999999999999823e-03 -4.778310000000000057e-01 -2.088100000000000026e-02 -8.621000000000000191e-03 -4.868959999999999955e-01 2.298679999999999890e-01 1.001510000000000039e-01 2.618900000000000047e-02 2.596740000000000159e-01 1.249529999999999946e-01 -5.285299999999999720e-02 1.371519999999999961e-01 8.214100000000000568e-02 1.390470000000000039e-01 1.169860000000000066e-01 8.362200000000000188e-02 1.198319999999999941e-01 -2.538199999999999831e-02 -8.802000000000000796e-03 -4.908049999999999913e-01 -2.553899999999999920e-02 -1.353599999999999942e-02 -4.798950000000000160e-01 2.214240000000000097e-01 8.193999999999999895e-02 3.540200000000000291e-02 1.731370000000000131e-01 1.405839999999999868e-01 5.512100000000000333e-02 1.419539999999999969e-01 8.489399999999999724e-02 9.715899999999999537e-02 1.420450000000000046e-01 1.083439999999999959e-01 7.281899999999999484e-02
-1.250459999999999905e-01 -1.102189999999999975e-01 3.802369999999999917e-01 -1.074589999999999990e-01 -1.093790000000000040e-01 2.534399999999999986e-01 -2.244200000000000084e-01 -1.662740000000000051e-01 2.217200000000000074e-02 -2.988560000000000105e-01 -2.238870000000000027e-01 4.399100000000000232e-02 -1.068660000000000027e-01 -8.821299999999999975e-02 3.336839999999999806e-01 -9.782399999999999429e-02 -1.614200000000000010e-02 3.468430000000000124e-01 -2.403790000000000093e-01 -2.167969999999999897e-01 1.740500000000000033e-02 -2.675060000000000215e-01 -4.097599999999999854e-02 4.211000000000000160e-02 -1.328409999999999869e-01 -5.026599999999999818e-02 4.558670000000000222e-01 -1.099440000000000001e-01 -8.451400000000000579e-02 3.775769999999999960e-01 -2.292589999999999906e-01 -8.952699999999999547e-02 -1.292599999999999999e-02 -1.713699999999999946e-01 -1.441860000000000086e-01 -4.905999999999999944e-02 -2.045599999999999849e-02 -1.063000000000000056e-02 -4.944140000000000201e-01 -1.740999999999999839e-02 -9.084000000000000061e-03 -4.061290000000000178e-01 2.983810000000000073e-01 1.465110000000000023e-01 -9.181999999999999190e-03 2.268310000000000048e-01 1.989360000000000017e-01 -3.405400000000000094e-02 1.495589999999999975e-01 1.145010000000000056e-01 7.701099999999999612e-02 1.255239999999999967e-01 1.634539999999999882e-01 1.050660000000000066e-01 -1.619699999999999959e-02 -7.313000000000000056e-03 -4.775889999999999858e-01 -1.910200000000000092e-02 -8.892999999999999863e-03 -4.864060000000000050e-01 2.420700000000000074e-01 9.772599999999999343e-02 2.798600000000000046e-02 2.652499999999999858e-01 1.176569999999999977e-01 -8.706999999999999462e-02 1.333370000000000111e-01 7.155100000000000349e-02 1.564309999999999867e-01 1.076320000000000054e-01 9.160799999999999499e-02 1.143949999999999967e-01 -2.645700000000000135e-02 -1.060299999999999958e-02 -5.231649999999999912e-01 -2.512299999999999950e-02 -1.409900000000000042e-02 -4.502680000000000016e-01 2.273209999999999953e-01 8.099000000000000643e-02 2.375800000000000134e-02 1.747309999999999974e-01 1.197659999999999975e-01 7.488599999999999424e-02 1.284129999999999994e-01 9.944699999999999374e-02 9.783400000000000429e-02 1.596789999999999876e-01 1.013369999999999965e-01 7.635799999999999532e-02