2.908299999999999774e-01 6.172830000000000261e+00 1.911630999999999858e+01 6.603349999999999831e+00 1.993349999999999955e+00 6.460320000000000285e+00 5.691209999999999880e+00 3.967290000000000205e+00 9.802060000000000883e+00 7.341759999999999842e+00 1.830610000000000070e+00 1.958141000000000176e+01 5.825619999999999798e+00 4.491089999999999804e+00 1.765740999999999872e+01 1.770569999999999977e+00 1.974480000000000013e+00 3.858089999999999797e+00 3.180099999999999927e+00 3.992840000000000167e+00 1.265741000000000049e+01 5.603299999999999947e+00 4.090599999999999792e-01 1.040591000000000044e+01 -6.717499999999999583e-01 6.135670000000000179e+00 1.281860999999999962e+01 2.494639999999999969e+00 2.243930000000000202e+00 1.677730999999999995e+01 2.396329999999999849e+00 6.281629999999999825e+00 3.484609999999999985e+00 3.391270000000000007e+00 4.087710000000000399e+00 6.390259999999999607e+00 5.268110000000000070e+00 -2.835000000000000020e-02 1.312970999999999933e+01 3.104039999999999910e+00 4.370730000000000004e+00 9.748160000000000380e+00 6.917370000000000019e+00 2.097630000000000106e+00 1.697090999999999994e+01 5.703190000000000204e+00 3.775469999999999882e+00 1.277440999999999960e+01 1.786259999999999959e+00 1.855359999999999898e+00 6.904429999999999623e+00 -1.958679999999999977e+00 4.617989999999999817e+00 6.945660000000000167e+00 -1.288520000000000110e+00 4.281620000000000203e+00 2.039820999999999884e+01 1.825739999999999919e+00 6.173969999999999736e+00 6.335359999999999658e+00 3.188410000000000188e+00 3.477199999999999736e-01 2.775659999999999794e+00 1.757779999999999898e+00 1.730150000000000077e+00 1.392021000000000086e+01 2.481850000000000112e+00 6.217430000000000234e+00 2.057591000000000037e+01 3.000900000000000123e+00 -4.587999999999999717e-02 9.995279999999999276e+00 3.469019999999999992e+00 4.634350000000000414e+00 1.625691000000000130e+01 -1.007099999999999940e-01 6.268839999999999968e+00 1.647351000000000099e+01 3.497520000000000184e+00 3.927439999999999820e+00 3.289229999999999876e+00 2.201179999999999914e+00 2.050100000000000033e+00 2.010570999999999842e+01 -7.284300000000000219e-01 2.427490000000000148e+00 3.514489999999999892e+00 -2.144600000000000117e-01 2.178080000000000016e+00 9.835760000000000502e+00
-1.422709999999999919e+00 6.672100000000000364e+00 8.705999999999999850e-02 -1.170660000000000034e+00 2.595040000000000013e+00 7.803889999999999993e+00 4.188699999999999868e+00 4.481760000000000410e+00 1.049850999999999956e+01 -6.010600000000000387e-01 2.522159999999999958e+00 2.141826999999999970e+01 -1.976460000000000106e+00 4.628960000000000186e+00 1.869057000000000102e+01 1.309250000000000025e+00 2.437380000000000102e+00 3.815430000000000099e+00 2.181099999999999817e+00 4.535420000000000229e+00 1.503206999999999915e+01 1.247530000000000028e+00 6.673770000000000202e+00 1.162116999999999933e+01 -1.966120000000000090e+00 6.649110000000000298e+00 1.388917000000000002e+01 1.454380000000000006e+00 2.062930000000000152e+00 1.773627000000000109e+01 5.212270000000000181e+00 4.398000000000000242e-01 2.662230000000000096e+00 2.208460000000000090e+00 4.991089999999999804e+00 6.354000000000000092e+00 4.859510000000000218e+00 3.294500000000000206e-01 1.430667000000000044e+01 1.568279999999999896e+00 3.974209999999999798e+00 1.057953999999999972e+01 5.933760000000000367e+00 2.088459999999999983e+00 1.890887000000000029e+01 4.504760000000000097e+00 4.033660000000000245e+00 1.387936999999999976e+01 1.227130000000000054e+00 2.598469999999999835e+00 6.423630000000000173e+00 -2.225359999999999783e+00 5.070009999999999906e+00 7.429610000000000269e+00 4.880569999999999631e+00 4.577399999999999913e+00 2.191137000000000157e+01 4.894700000000000273e+00 5.391799999999999926e-01 6.583639999999999937e+00 2.405850000000000044e+00 5.099999999999999672e-02 3.042429999999999968e+00 7.277400000000000535e-01 2.196590000000000042e+00 1.485917000000000066e+01 1.634309999999999929e+00 6.786360000000000170e+00 2.230716999999999928e+01 1.627050000000000107e+00 3.624700000000000144e-01 1.131267000000000067e+01 2.625840000000000174e+00 4.438760000000000261e+00 1.757627000000000095e+01 -6.902300000000000102e-01 6.635720000000000063e+00 1.837047000000000097e+01 2.456999999999999851e+00 4.754520000000000302e+00 3.482870000000000132e+00 1.944720000000000004e+00 2.510019999999999918e+00 2.148106999999999900e+01 -1.032070000000000043e+00 2.838620000000000143e+00 2.730440000000000200e+00 -1.081900000000000084e+00 2.511899999999999800e+00 1.069325000000000081e+01
1.771600000000000119e-01 5.914109999999999978e+00 1.884451999999999927e+01 6.632360000000000255e+00 1.979700000000000015e+00 6.382600000000000051e+00 5.628849999999999909e+00 3.861499999999999932e+00 9.632279999999999731e+00 7.193270000000000053e+00 1.679589999999999916e+00 1.927832000000000079e+01 5.636840000000000295e+00 4.418790000000000440e+00 1.733121999999999829e+01 1.690039999999999987e+00 1.922369999999999912e+00 3.823199999999999932e+00 3.057329999999999881e+00 3.798960000000000115e+00 1.255021999999999949e+01 5.591639999999999944e+00 3.854199999999999848e-01 1.028322000000000003e+01 -6.868300000000000516e-01 5.993829999999999991e+00 1.260051999999999950e+01 2.402649999999999952e+00 2.114349999999999952e+00 1.656972000000000023e+01 2.305610000000000159e+00 6.153310000000000279e+00 3.395830000000000126e+00 3.323869999999999880e+00 3.966429999999999900e+00 6.276959999999999873e+00 5.146169999999999689e+00 -1.841099999999999959e-01 1.294832000000000072e+01 3.009189999999999809e+00 4.163859999999999673e+00 9.741730000000000445e+00 6.868149999999999977e+00 1.973019999999999996e+00 1.672472000000000136e+01 5.697409999999999641e+00 3.741420000000000190e+00 1.258311999999999919e+01 1.697459999999999969e+00 1.878749999999999920e+00 6.786349999999999660e+00 -1.821450000000000014e+00 4.513510000000000133e+00 6.904639999999999667e+00 -1.321399999999999908e+00 4.064359999999999751e+00 1.999182000000000059e+01 1.727130000000000054e+00 6.074980000000000047e+00 6.298189999999999955e+00 3.140449999999999964e+00 2.169099999999999917e-01 2.684219999999999828e+00 1.779530000000000056e+00 1.616000000000000103e+00 1.368491999999999997e+01 2.454520000000000035e+00 5.955580000000000318e+00 2.032931999999999917e+01 -2.925599999999999867e-01 6.230920000000000236e+00 9.836869999999999337e+00 3.400020000000000042e+00 4.460580000000000211e+00 1.608132000000000161e+01 -2.283000000000000029e-01 5.971059999999999590e+00 1.625151999999999930e+01 3.425229999999999997e+00 3.829369999999999941e+00 3.309880000000000155e+00 2.086170000000000080e+00 1.855129999999999946e+00 1.987402000000000157e+01 -8.119100000000000206e-01 2.433739999999999792e+00 3.427900000000000169e+00 -2.890400000000000191e-01 2.064070000000000071e+00 9.666760000000000019e+00
3.158110000000000195e+00 2.222939999999999916e+00 2.225667999999999935e+01 -8.473199999999999621e-01 3.524979999999999780e+00 7.943839999999999790e+00 1.568410000000000082e+00 -8.048499999999999543e-01 1.037547999999999959e+01 1.022855999999999987e+01 -2.491859999999999964e+00 2.090808000000000177e+01 9.099980000000000402e+00 1.028000000000000025e-01 1.745108000000000104e+01 2.476160000000000139e+00 3.444749999999999979e+00 4.126360000000000028e+00 6.664559999999999818e+00 -4.938799999999999857e-01 1.448268000000000022e+01 5.468280000000000030e+00 1.299490000000000034e+00 1.112593000000000032e+01 2.937940000000000218e+00 1.710480000000000000e+00 1.392497999999999969e+01 5.751190000000000246e+00 -2.198049999999999837e+00 1.802997999999999834e+01 4.206220000000000070e+00 1.526459999999999928e+00 2.518009999999999859e+00 6.226709999999999745e+00 -6.473799999999999555e-01 6.954379999999999562e+00 5.536139999999999617e+00 1.613869999999999916e+00 1.380028000000000077e+01 6.716000000000000192e+00 -8.363000000000000433e-01 1.151088000000000022e+01 9.620440000000000325e+00 -2.235829999999999984e+00 1.839028000000000063e+01 9.256000000000000227e+00 -6.937600000000000433e-01 1.477768000000000015e+01 1.456280000000000019e+00 3.259599999999999831e+00 7.050300000000000011e+00 1.226250000000000062e+00 -7.419299999999999784e-01 7.561510000000000176e+00 9.324790000000000134e+00 -1.413600000000000134e-01 2.241018000000000043e+01 4.968880000000000408e+00 1.244359999999999911e+00 8.172370000000000800e+00 1.650300000000000100e+00 1.838600000000000012e+00 2.168330000000000091e+00 1.553979999999999917e+00 3.755609999999999893e+00 1.491398000000000046e+01 1.474329999999999918e+00 6.208090000000000330e+00 9.019099999999999895e-01 2.770630000000000148e+00 1.421899999999999942e+00 1.094298999999999999e+01 6.483279999999999710e+00 2.649299999999999988e-01 1.746117999999999881e+01 3.327249999999999819e+00 1.987910000000000066e+00 1.710968000000000089e+01 5.336129999999999818e+00 -5.325100000000000389e-01 4.316180000000000128e+00 6.083129999999999704e+00 -2.347649999999999793e+00 2.072388000000000119e+01 4.888510000000000133e+00 3.409940000000000193e+00 4.147759999999999891e+00 -4.277099999999999791e-01 3.521700000000000053e+00 1.053384999999999927e+01
-1.229989999999999917e+00 5.890170000000000350e+00 1.976916999999999902e+01 6.146139999999999937e+00 1.870740000000000069e+00 7.184599999999999653e+00 4.836809999999999832e+00 3.974720000000000031e+00 9.744030000000000413e+00 5.695109999999999673e+00 1.898640000000000105e+00 1.993027000000000015e+01 -2.629239999999999799e+00 4.276699999999999946e+00 1.658687000000000111e+01 1.474750000000000005e+00 1.841269999999999962e+00 2.517689999999999984e+00 2.487740000000000062e+00 4.253409999999999691e+00 1.363546999999999976e+01 1.706830000000000069e+00 5.644809999999999661e+00 9.797430000000000305e+00 2.495099999999999874e+00 -8.153000000000000524e-02 1.325087000000000081e+01 8.596500000000000252e-01 2.034330000000000194e+00 1.586586999999999925e+01 1.916299999999999892e+00 6.187090000000000423e+00 1.806340000000000057e+00 2.379490000000000105e+00 3.995629999999999793e+00 5.516530000000000378e+00 4.937109999999999665e+00 4.450700000000000212e-01 1.300627000000000066e+01 2.299129999999999896e+00 3.133129999999999971e+00 1.019007000000000041e+01 -1.299670000000000103e+00 2.109389999999999876e+00 1.718686999999999898e+01 -2.304910000000000014e+00 4.092150000000000176e+00 1.358066999999999958e+01 7.650000000000000133e-01 1.965109999999999912e+00 5.640189999999999593e+00 4.732330000000000148e+00 4.001689999999999969e+00 6.715489999999999959e+00 4.269569999999999865e+00 4.174599999999999866e+00 1.949026999999999887e+01 8.546700000000000408e-01 5.618159999999999599e+00 7.088930000000000398e+00 -6.924000000000000155e-01 5.915199999999999569e+00 2.231539999999999857e+00 7.406300000000000106e-01 2.216349999999999820e+00 1.356856999999999935e+01 1.619390000000000107e+00 5.950549999999999784e+00 1.963466999999999985e+01 -9.329800000000000315e-01 5.956439999999999735e+00 1.045677000000000056e+01 2.269660000000000011e+00 4.511219999999999786e+00 1.653397000000000006e+01 2.393800000000000150e+00 -2.300399999999999945e-01 1.687276999999999916e+01 3.128120000000000012e+00 3.992509999999999781e+00 2.955109999999999904e+00 1.275060000000000082e+00 2.130230000000000068e+00 2.022107000000000099e+01 -1.187380000000000102e+00 2.201029999999999820e+00 2.479509999999999881e+00 6.102649999999999686e+00 1.699140000000000095e+00 9.887340000000000018e+00
3.183260000000000201e+00 1.626999999999999974e-02 2.270500000000000018e-01 4.667600000000000082e-01 2.655349999999999877e+00 7.343779999999999752e+00 5.393309999999999604e+00 4.856309999999999683e+00 9.987019999999999342e+00 2.214539999999999953e+00 2.951400000000000023e+00 2.126621000000000095e+01 5.776360000000000383e+00 4.648290000000000255e+00 1.791871000000000080e+01 1.999419999999999975e+00 2.409959999999999880e+00 3.970099999999999962e+00 3.286509999999999820e+00 4.748190000000000133e+00 1.414131000000000071e+01 5.379940000000000389e+00 4.876400000000000179e-01 1.035915999999999926e+01 -6.422799999999999621e-01 6.529550000000000409e+00 1.386401000000000039e+01 1.911329999999999973e+00 2.676759999999999806e+00 1.671060999999999908e+01 2.384090000000000042e+00 6.375280000000000058e+00 2.727479999999999905e+00 4.124010000000000176e+00 4.813990000000000435e+00 6.217559999999999754e+00 5.356200000000000294e+00 6.468399999999999705e-01 1.322671000000000063e+01 2.913879999999999804e+00 4.318819999999999659e+00 9.693099999999999383e+00 6.935909999999999798e+00 2.181709999999999816e+00 1.781941000000000130e+01 5.616170000000000329e+00 4.161480000000000068e+00 1.325470999999999933e+01 3.042949999999999822e+00 2.530060000000000198e+00 6.514920000000000044e+00 -6.372200000000000086e-01 5.020550000000000068e+00 6.804380000000000095e+00 7.984900000000000331e-01 5.188860000000000028e+00 2.045541000000000054e+01 6.438509999999999955e+00 7.759500000000000286e-01 6.227380000000000138e+00 -3.176800000000000179e-01 6.354110000000000369e+00 2.920189999999999841e+00 1.478699999999999903e+00 2.530040000000000067e+00 1.386570999999999998e+01 4.693089999999999762e+00 6.981760000000000410e+00 2.132360999999999862e+01 2.790410000000000057e+00 8.074400000000000466e-01 1.046552999999999933e+01 3.196260000000000101e+00 5.162689999999999557e+00 1.683250999999999920e+01 -3.753000000000000086e-02 6.829180000000000028e+00 1.652450999999999937e+01 3.826529999999999987e+00 4.422109999999999985e+00 3.558440000000000047e+00 4.750329999999999941e+00 3.282420000000000115e+00 2.064451000000000036e+01 -2.593400000000000150e-01 2.649480000000000057e+00 2.603349999999999831e+00 -1.034800000000000025e-01 2.671559999999999935e+00 1.000650000000000084e+01
1.717899999999999983e+00 3.629999999999999980e-03 1.954500000000000126e-01 4.684179999999999566e+00 1.326089999999999991e+00 7.538640000000000008e+00 3.328829999999999956e+00 3.889190000000000147e+00 9.867470000000000852e+00 5.208459999999999646e+00 2.604859999999999953e+00 3.255000000000000254e-02 -4.203439999999999621e+00 3.832759999999999945e+00 1.828151000000000082e+01 6.554699999999999971e-01 2.515449999999999964e+00 2.585749999999999993e+00 1.049299999999999899e+00 4.004279999999999617e+00 1.441811000000000043e+01 -3.110200000000000187e-01 5.658669999999999867e+00 1.043628000000000000e+01 -2.405149999999999899e+00 5.784600000000000186e+00 1.353551000000000037e+01 -3.519999999999999796e-01 1.659790000000000099e+00 1.706941000000000130e+01 4.410980000000000345e+00 2.168799999999999895e-01 2.591670000000000140e+00 8.157600000000000406e-01 3.827550000000000008e+00 6.631619999999999848e+00 3.931249999999999911e+00 -1.133799999999999947e-01 1.335370999999999952e+01 8.412699999999999623e-01 3.460739999999999927e+00 1.072200999999999915e+01 -2.827069999999999972e+00 1.806089999999999973e+00 1.812411000000000172e+01 -3.559899999999999842e+00 3.466800000000000104e+00 1.380660999999999916e+01 -1.700000000000000122e-02 1.349949999999999983e+00 6.400839999999999641e+00 3.346249999999999947e+00 3.226900000000000102e+00 7.135769999999999946e+00 1.104989999999999917e+00 3.895970000000000155e+00 2.105601000000000056e+01 -4.868999999999999995e-01 5.459190000000000431e+00 7.587570000000000370e+00 1.689789999999999903e+00 1.424799999999999955e-01 2.904560000000000031e+00 -8.704000000000000625e-02 1.571879999999999944e+00 1.437810999999999950e+01 4.295700000000000074e+00 4.338000000000000189e-02 1.270000000000000018e-01 5.787200000000000122e-01 -2.408399999999999985e-01 1.035941000000000045e+01 5.546400000000000219e-01 4.068800000000000416e+00 1.722941000000000145e+01 4.927000000000000268e-01 -3.161700000000000066e-01 1.855551000000000172e+01 1.778140000000000054e+00 4.564600000000000435e+00 4.141750000000000043e+00 7.648599999999999843e-01 2.637119999999999909e+00 4.213999999999999690e-02 -1.882589999999999986e+00 2.519130000000000091e+00 3.316780000000000062e+00 -2.416090000000000071e+00 1.566079999999999917e+00 1.014564999999999984e+01
2.150119999999999809e+00 -3.846999999999999725e-02 2.153973999999999833e+01 -1.336889999999999912e+00 2.849070000000000213e+00 7.010259999999999714e+00 3.787580000000000169e+00 3.630160000000000053e+00 1.085347999999999935e+01 -1.646840000000000082e+00 1.775949999999999918e+00 2.158793999999999969e+01 -2.966990000000000016e+00 4.097199999999999953e+00 1.887984000000000151e+01 9.354799999999999782e-01 2.079110000000000014e+00 4.331290000000000084e+00 1.220839999999999925e+00 3.890569999999999862e+00 1.490314000000000050e+01 5.184499999999999664e-01 6.170309999999999739e+00 1.144473999999999947e+01 -2.341720000000000024e+00 5.938749999999999751e+00 1.342193999999999932e+01 7.320200000000000040e-01 1.999589999999999979e+00 1.792114000000000118e+01 4.523810000000000109e+00 2.835699999999999887e-01 4.293989999999999974e+00 3.074429999999999996e+00 4.506770000000000387e+00 6.095889999999999809e+00 1.221000000000000037e-02 6.081330000000000346e+00 1.414784000000000042e+01 1.454779999999999962e+00 4.040779999999999816e+00 1.045148999999999972e+01 -1.754059999999999953e+00 1.896800000000000042e+00 1.890543999999999869e+01 3.579489999999999839e+00 3.315300000000000136e+00 1.394603999999999999e+01 1.557949999999999946e+00 2.700070000000000192e+00 6.788050000000000139e+00 -2.121799999999999908e+00 4.962760000000000282e+00 7.699060000000000237e+00 3.971119999999999983e+00 4.000560000000000116e+00 2.169274000000000058e+01 4.835130000000000372e+00 2.250300000000000078e-01 6.881470000000000198e+00 -1.457119999999999971e+00 6.229099999999999859e+00 3.638689999999999980e+00 2.219500000000000084e-01 1.631269999999999998e+00 1.527124000000000059e+01 9.994300000000000406e-01 5.198859999999999815e+00 2.204543999999999926e+01 -2.041739999999999888e+00 5.969689999999999941e+00 1.086923999999999957e+01 1.727600000000000025e+00 4.529200000000000337e+00 1.811723999999999890e+01 2.339440000000000186e+00 2.275999999999999898e-02 1.898064000000000107e+01 2.852559999999999985e+00 4.437599999999999767e+00 3.711710000000000065e+00 7.693900000000000183e-01 1.794580000000000064e+00 2.255163999999999902e+01 -1.665939999999999976e+00 2.684750000000000192e+00 3.900459999999999816e+00 5.599639999999999951e+00 1.795339999999999936e+00 1.079654999999999987e+01
-2.332370000000000054e+00 5.503919999999999924e+00 2.288661000000000101e+01 -1.454550000000000010e+00 2.641249999999999876e+00 7.232770000000000366e+00 3.740439999999999987e+00 3.250640000000000196e+00 1.157576000000000072e+01 4.764389999999999681e+00 8.795500000000000540e-01 2.287571000000000154e+01 -3.786709999999999798e+00 3.665610000000000035e+00 2.030350999999999928e+01 8.375299999999999967e-01 2.054689999999999905e+00 4.607269999999999754e+00 7.899800000000000155e-01 3.567029999999999923e+00 1.586210999999999949e+01 6.530000000000000214e-03 5.641619999999999635e+00 1.209670999999999985e+01 -3.133239999999999803e+00 5.281019999999999825e+00 1.421500999999999948e+01 1.132200000000000012e-01 1.524489999999999901e+00 1.903400999999999854e+01 4.528459999999999930e+00 2.354999999999999871e-01 4.695960000000000356e+00 3.036000000000000032e+00 4.581249999999999822e+00 6.442379999999999995e+00 -2.618099999999999872e-01 5.813679999999999737e+00 1.512570999999999977e+01 1.239589999999999970e+00 3.795599999999999863e+00 1.050150000000000006e+01 -2.351850000000000218e+00 1.039060000000000095e+00 1.995671000000000106e+01 3.312819999999999876e+00 3.207780000000000076e+00 1.494701000000000057e+01 9.706900000000000528e-01 2.452929999999999833e+00 7.278679999999999595e+00 -2.941720000000000113e+00 4.752449999999999619e+00 8.376269999999999882e+00 -3.805369999999999919e+00 3.459849999999999870e+00 2.282210999999999856e+01 5.107619999999999827e+00 3.057599999999999763e-01 7.390159999999999840e+00 -1.862719999999999931e+00 6.114289999999999559e+00 3.972259999999999902e+00 -3.477299999999999836e-01 1.171650000000000080e+00 1.627020999999999873e+01 2.897999999999999882e-02 5.035040000000000404e+00 2.338110999999999962e+01 -2.652169999999999916e+00 5.681549999999999656e+00 1.147837999999999958e+01 1.275760000000000005e+00 3.826210000000000111e+00 1.923980999999999852e+01 1.738569999999999949e+00 -6.277399999999999647e-01 1.985370999999999952e+01 2.003950000000000120e+00 4.676479999999999748e+00 3.648429999999999840e+00 -2.149899999999999867e-01 1.163149999999999906e+00 2.382980999999999838e+01 -1.677119999999999944e+00 2.604740000000000055e+00 4.339140000000000441e+00 5.191629999999999967e+00 1.235800000000000010e+00 1.126831999999999923e+01
5.722500000000000364e-01 1.088589999999999947e+00 2.106810000000000116e+01 -1.300580000000000069e+00 1.789369999999999905e+00 7.484910000000000174e+00 -2.659800000000000164e+00 4.153810000000000002e+00 9.525359999999999161e+00 -1.525789999999999980e+00 2.689189999999999969e+00 6.518199999999999550e-01 3.140000000000000124e+00 4.607910000000000394e+00 1.859390000000000143e+01 9.769600000000000506e-01 2.345470000000000166e+00 3.315609999999999946e+00 1.560810000000000031e+00 4.043339999999999712e+00 1.408600000000000030e+01 1.048969999999999958e+00 6.026150000000000340e+00 1.034257000000000026e+01 -2.031930000000000014e+00 6.166070000000000384e+00 1.323540000000000028e+01 -6.514999999999999680e-01 2.707860000000000156e+00 1.694709999999999894e+01 4.302839999999999776e+00 2.716299999999999826e-01 2.742300000000000182e+00 2.075919999999999987e+00 4.140520000000000422e+00 6.379749999999999588e+00 6.248099999999999765e-01 6.270419999999999661e+00 1.327490000000000059e+01 2.311030000000000140e+00 3.649080000000000101e+00 1.052449999999999974e+01 4.285630000000000273e+00 2.390880000000000116e+00 1.808259999999999934e+01 -2.887630000000000141e+00 3.896139999999999937e+00 1.448789999999999978e+01 1.135920000000000041e+00 1.839129999999999932e+00 6.260089999999999932e+00 -2.408020000000000049e+00 4.215740000000000265e+00 6.938310000000000421e+00 2.856510000000000105e+00 5.060819999999999652e+00 2.121920000000000073e+01 7.296300000000000008e-01 6.301260000000000083e+00 7.515869999999999607e+00 -1.890260000000000051e+00 6.376159999999999606e+00 2.729540000000000077e+00 8.946999999999999398e-02 1.902260000000000062e+00 1.367130000000000045e+01 4.843910000000000160e+00 4.442699999999999982e-01 4.680000000000000132e-03 -1.601820000000000022e+00 6.331140000000000434e+00 1.034600000000000009e+01 7.536000000000000476e-01 5.086999999999999744e+00 1.700570000000000093e+01 9.597099999999999520e-01 2.490300000000000014e-01 1.816479999999999961e+01 2.295269999999999921e+00 4.892789999999999750e+00 3.965310000000000112e+00 1.429650000000000087e+00 3.133280000000000065e+00 4.472599999999999909e-01 5.396110000000000184e+00 2.438849999999999962e+00 3.345040000000000013e+00 -1.386989999999999945e+00 1.809160000000000101e+00 1.034741000000000000e+01
5.697289999999999743e+00 2.533139999999999947e+00 1.990630000000000166e+01 -1.556800000000000128e-01 2.645960000000000090e+00 7.116349999999999731e+00 5.527379999999999960e+00 4.718390000000000306e+00 9.787369999999999237e+00 2.105420000000000069e+00 4.739709999999999646e+00 2.056729999999999947e+01 4.839879999999999960e+00 4.694969999999999644e+00 1.662419999999999831e+01 2.476129999999999942e+00 3.192470000000000141e+00 3.491979999999999862e+00 3.186539999999999928e+00 4.995899999999999785e+00 1.350469999999999970e+01 1.812119999999999953e+00 6.700980000000000381e+00 9.767559999999999576e+00 -2.444099999999999884e-01 6.620409999999999684e+00 1.377590000000000003e+01 1.433470000000000022e+00 2.501259999999999817e+00 1.641400000000000148e+01 5.694219999999999615e+00 2.561200000000000143e-01 2.596740000000000048e+00 3.380739999999999856e+00 4.766040000000000276e+00 6.106279999999999930e+00 2.250760000000000094e+00 7.230030000000000179e+00 1.305439999999999934e+01 3.031759999999999788e+00 4.368299999999999628e+00 1.025848000000000049e+01 6.227719999999999700e+00 2.528410000000000046e+00 1.719999999999999929e+01 5.671700000000000408e+00 4.472509999999999764e+00 1.349549999999999983e+01 2.396570000000000089e+00 2.408220000000000027e+00 6.329850000000000421e+00 -1.342230000000000034e+00 5.155899999999999928e+00 7.234280000000000044e+00 5.404499999999999860e-01 6.710790000000000255e+00 2.018230000000000146e+01 1.992790000000000061e+00 6.770920000000000272e+00 7.017179999999999751e+00 3.280730000000000146e+00 7.305599999999999872e-01 2.454790000000000028e+00 1.918029999999999902e+00 2.503709999999999880e+00 1.379550000000000054e+01 8.269159999999999400e+00 2.050139999999999851e+00 2.042989999999999995e+01 -7.051600000000000090e-01 7.077239999999999753e+00 1.026563999999999943e+01 2.429689999999999905e+00 5.006780000000000008e+00 1.642780000000000129e+01 -8.061899999999999622e-01 6.624520000000000408e+00 1.648679999999999879e+01 4.083999999999999631e+00 5.266589999999999883e+00 3.558219999999999938e+00 4.586929999999999730e+00 4.937090000000000423e+00 1.979729999999999990e+01 -1.055600000000000011e-01 3.460679999999999978e+00 2.589780000000000193e+00 6.928729999999999833e+00 2.487540000000000084e+00 9.779709999999999681e+00
-1.168779999999999930e+00 6.315159999999999663e+00 7.849199999999999511e-01 -1.094349999999999934e+00 2.443869999999999987e+00 6.563609999999999722e+00 -2.401629999999999932e+00 4.637940000000000396e+00 9.709120000000000417e+00 -1.267500000000000071e+00 2.289050000000000029e+00 4.950000000000000233e-02 4.345089999999999897e+00 4.061119999999999841e+00 1.771630000000000038e+01 1.044999999999999929e+00 2.861580000000000013e+00 2.543719999999999981e+00 2.107380000000000031e+00 3.930229999999999890e+00 1.350779999999999959e+01 9.271000000000000352e-01 6.352560000000000429e+00 1.057809999999999917e+01 -2.074489999999999945e+00 5.989709999999999646e+00 1.383880000000000088e+01 7.270299999999999541e-01 1.685529999999999973e+00 1.634720000000000084e+01 4.779530000000000278e+00 1.930499999999999994e-01 3.519480000000000164e+00 1.962290000000000090e+00 4.284830000000000361e+00 6.589559999999999640e+00 5.410300000000000109e-01 6.014459999999999695e+00 1.324639999999999951e+01 2.385450000000000070e+00 4.553720000000000212e+00 9.478270000000000195e+00 5.474840000000000373e+00 1.739800000000000013e+00 1.726399999999999935e+01 4.541129999999999889e+00 3.624120000000000008e+00 1.270679999999999943e+01 1.409010000000000096e+00 1.911489999999999911e+00 6.074530000000000207e+00 4.547659999999999592e+00 4.270310000000000272e+00 5.976149999999999629e+00 4.015869999999999607e+00 4.269960000000000200e+00 2.056080000000000041e+01 4.541229999999999656e+00 2.303099999999999870e-01 6.158159999999999634e+00 2.037100000000000133e+00 2.722899999999999765e-01 3.285950000000000149e+00 5.805799999999999850e-01 1.937899999999999956e+00 1.335970000000000013e+01 1.281530000000000058e+00 6.180189999999999628e+00 3.327899999999999747e-01 2.284469999999999779e+00 6.580500000000000238e-01 9.842299999999999827e+00 2.222630000000000106e+00 4.010699999999999932e+00 1.641700000000000159e+01 -1.439370000000000038e+00 5.964470000000000383e+00 1.648140000000000072e+01 2.370999999999999996e+00 4.445979999999999599e+00 3.419399999999999995e+00 9.979000000000000092e-01 2.501829999999999998e+00 2.076709999999999923e+01 5.565430000000000099e+00 2.612280000000000157e+00 2.658180000000000209e+00 -1.317160000000000108e+00 2.403430000000000177e+00 9.382920000000000371e+00
5.174400000000000333e+00 8.755300000000000304e-01 2.010090999999999894e+01 6.903620000000000090e+00 2.263729999999999798e+00 7.238459999999999894e+00 5.108279999999999710e+00 4.436539999999999928e+00 9.753590000000000870e+00 1.769320000000000004e+00 2.939639999999999809e+00 2.075660999999999845e+01 4.043200000000000127e-01 4.326190000000000424e+00 1.728700999999999866e+01 2.019589999999999996e+00 2.283490000000000020e+00 2.538819999999999855e+00 5.098799999999999777e+00 4.282869999999999955e+00 1.423141000000000034e+01 4.481900000000000439e+00 2.304200000000000137e-01 9.199379999999999669e+00 1.259649999999999936e+00 6.075129999999999697e+00 1.274330999999999925e+01 3.592519999999999936e+00 2.215570000000000039e+00 1.665631000000000128e+01 5.019790000000000418e+00 2.179000000000000103e-01 2.757600000000000051e+00 3.201890000000000125e+00 4.297710000000000363e+00 6.267280000000000406e+00 3.957460000000000200e+00 6.398719999999999963e+00 1.295510999999999946e+01 2.861819999999999808e+00 4.392310000000000159e+00 1.051590999999999987e+01 1.411790000000000100e+00 2.137750000000000039e+00 1.800950999999999880e+01 6.509200000000000541e-01 3.816920000000000091e+00 1.403340999999999994e+01 2.058530000000000193e+00 1.892090000000000050e+00 6.401559999999999917e+00 -1.382619999999999960e+00 4.590720000000000134e+00 6.912959999999999994e+00 3.012400000000000078e-01 4.957220000000000404e+00 2.047241000000000000e+01 1.687329999999999997e+00 6.269929999999999559e+00 6.531830000000000247e+00 -5.895099999999999785e-01 6.279630000000000045e+00 3.420619999999999994e+00 3.296269999999999811e+00 1.971640000000000059e+00 1.404021000000000008e+01 7.580390000000000406e+00 6.934099999999999708e-01 2.078171000000000035e+01 -5.956299999999999928e-01 6.285650000000000404e+00 1.086241000000000057e+01 5.081360000000000099e+00 4.537580000000000169e+00 1.704051000000000116e+01 2.043590000000000018e+00 6.444600000000000328e+00 1.728190999999999988e+01 3.589309999999999778e+00 4.330199999999999605e+00 3.507470000000000088e+00 4.361600000000000144e+00 3.225089999999999790e+00 2.101970999999999989e+01 -7.554199999999999804e-01 2.475760000000000183e+00 2.793689999999999785e+00 6.318909999999999805e+00 1.847380000000000022e+00 1.001781000000000077e+01