4.419859999999999900e-01 7.178590000000000249e-01 1.756300999999999890e+00 9.237060000000000271e-01 4.985120000000000107e-01 -3.591590000000000060e-01 1.055249999999999938e-01 1.306362000000000023e+00 6.065000000000000252e-02 -6.190839999999999677e-01 -4.928790000000000115e-01 2.391500000000000015e-01 -8.416080000000000227e-01 -9.581870000000000109e-01 -3.226359999999999784e-01 -2.994060000000000055e-01 5.342149999999999954e-01 1.168198999999999987e+00 -1.213346000000000036e+00 6.419999999999999318e-02 3.643910000000000204e-01 -9.092500000000000582e-02 -6.556589999999999918e-01 3.587949999999999751e-01 -1.026000000000000002e-03 -3.164000000000000146e-01 -1.069636000000000031e+00 -8.768519999999999648e-01 8.236480000000000468e-01 2.385660000000000003e-01 -6.963599999999999790e-01 7.350389999999999979e-01 1.130150000000000043e-01 -1.919523000000000090e+00 -8.005799999999999583e-01 -7.140670000000000073e-01 8.635549999999999615e-01 -6.490960000000000063e-01 -4.723800000000000221e-02 -5.265299999999999842e-02 -2.058399999999999952e-01 6.800960000000000338e-01 5.601720000000000033e-01 3.537790000000000101e-01 2.085000000000000048e-03 6.596699999999999786e-01 2.032090000000000007e-01 4.291400000000000076e-02 -4.653600000000000098e-02 5.846189999999999998e-01 -1.042103000000000002e+00 1.719699000000000089e+00 -6.876959999999999740e-01 3.780870000000000064e-01 -3.071300000000000072e-02 2.588960000000000150e-01 -1.196120999999999990e+00 -8.918000000000000579e-03 8.268860000000000099e-01 -5.459699999999999970e-02 9.771990000000000398e-01 -1.360578999999999983e+00 -6.622280000000000388e-01 -7.866299999999999681e-02 1.483201999999999909e+00 -3.061369999999999925e-01 4.393569999999999975e-01 5.357560000000000100e-01 -8.364319999999999533e-01 -3.299679999999999835e-01 7.198300000000000531e-02 4.976880000000000193e-01 3.296359999999999846e-01 -4.819470000000000143e-01 5.650100000000000122e-01 1.642859999999999876e-01 -4.735960000000000170e-01 4.897989999999999844e-01 -3.905600000000000044e-02 5.405280000000000085e-01 5.867930000000000090e-01 6.973420000000000174e-01 -6.413539999999999797e-01 -1.048319000000000001e+00 -5.307680000000000176e-01 -8.059469999999999690e-01 4.882290000000000241e-01 -2.067279999999999951e-01 -1.008936000000000055e+00 -3.710950000000000082e-01
5.168160000000000531e-01 -2.242329999999999879e-01 5.626919999999999700e-01 7.112300000000000566e-02 3.291560000000000041e-01 -2.250000000000000056e-01 -4.431200000000000139e-01 6.553529999999999633e-01 -2.482900000000000107e-01 -2.109700000000000117e-02 -4.947929999999999828e-01 1.208350999999999953e+00 -5.751789999999999958e-01 -1.340597000000000039e+00 9.419300000000000450e-01 -4.428369999999999806e-01 -4.794450000000000101e-01 -8.425669999999999549e-01 1.152429999999999982e-01 -9.483400000000000163e-02 -1.062098999999999904e+00 -1.925900000000000112e-01 -4.510930000000000217e-01 -4.388830000000000231e-01 6.949629999999999974e-01 -2.434709999999999930e-01 -2.104560000000000042e-01 -2.248539999999999983e-01 -5.871760000000000312e-01 8.635099999999999720e-02 -9.611070000000000446e-01 -7.122960000000000402e-01 -3.455250000000000266e-01 1.145680999999999949e+00 -2.840239999999999987e-01 -3.412970000000000170e-01 -4.130809999999999760e-01 -9.680670000000000108e-01 -1.945230000000000015e-01 4.852779999999999871e-01 1.541419000000000095e+00 5.031830000000000469e-01 1.255330000000000057e-01 2.830259999999999998e-01 -1.318224999999999980e+00 -2.038099999999999912e-01 8.363789999999999836e-01 3.444740000000000024e-01 5.526099999999999762e-02 -1.744469999999999910e-01 1.033123999999999931e+00 -2.546399999999999775e-01 -7.595140000000000224e-01 7.383750000000000036e-01 -3.145549999999999735e-01 2.733229999999999826e-01 -7.790179999999999882e-01 -8.340180000000000371e-01 4.104960000000000275e-01 -5.496600000000000097e-02 2.873370000000000091e-01 6.292640000000000455e-01 -5.134710000000000107e-01 1.382619999999999960e-01 1.186070000000000041e-01 9.378670000000000062e-01 -7.698900000000000188e-02 5.575120000000000076e-01 2.843890000000000029e-01 4.112500000000000044e-01 -5.336060000000000247e-01 -3.625499999999999834e-01 -4.538420000000000232e-01 8.950600000000000223e-02 8.341380000000000461e-01 4.422309999999999852e-01 1.652536999999999923e+00 -6.392120000000000024e-01 6.473430000000000017e-01 6.433919999999999639e-01 5.645029999999999770e-01 2.694079999999999808e-01 1.137370000000000048e-01 -4.914199999999999818e-02 1.458820000000000117e-01 -1.332339999999999913e-01 1.387190000000000090e-01 -1.398890000000000133e-01 -6.528779999999999584e-01 -5.528699999999999726e-01
1.261236000000000024e+00 1.052877999999999981e+00 2.190011000000000152e+00 -1.958320000000000061e-01 5.540599999999999692e-02 -5.221710000000000518e-01 -6.954679999999999751e-01 1.873853999999999909e+00 1.858539999999999914e-01 -8.484650000000000247e-01 -9.430539999999999479e-01 4.260329999999999950e-01 -9.457130000000000258e-01 -1.878792000000000018e+00 2.247349999999999903e-01 -9.855899999999999384e-02 -1.924420000000000019e-01 5.574599999999999556e-01 -3.423390000000000044e-01 1.205610000000000015e-01 1.107559999999999933e-01 -1.098362999999999978e+00 -1.831404999999999950e+00 5.520669999999999744e-01 4.017640000000000100e-01 -4.513570000000000082e-01 -1.419769000000000059e+00 -1.068337000000000092e+00 3.036099999999999910e-01 3.044229999999999992e-01 -4.237290000000000223e-01 9.868219999999999770e-01 3.706579999999999875e-01 -8.305639999999999690e-01 1.633400000000000130e-01 -5.327020000000000088e-01 1.089002999999999943e+00 -3.801760000000000139e-01 2.809260000000000090e-01 1.570179999999999909e-01 -3.394900000000000001e-02 3.311000000000000054e-01 4.909129999999999883e-01 3.237400000000000277e-01 -4.694909999999999917e-01 -2.516019999999999923e-01 -4.723649999999999793e-01 2.095130000000000048e-01 5.050289999999999502e-01 -6.961299999999999433e-02 -6.891990000000000061e-01 3.057159999999999878e-01 -6.164079999999999560e-01 2.148000000000000170e-03 -5.604000000000000092e-01 3.365799999999999903e-01 -3.977930000000000077e-01 6.575360000000000094e-01 9.596829999999999528e-01 -1.176890000000000019e-01 -1.719489999999999907e-01 -5.640770000000000506e-01 -3.235390000000000210e-01 -5.280310000000000281e-01 2.062867999999999924e+00 2.410559999999999925e-01 2.582530000000000103e-01 6.466380000000000461e-01 -1.210674000000000028e+00 -3.127719999999999945e-01 3.077480000000000215e-01 3.948789999999999800e-01 -2.901790000000000203e-01 -2.001580000000000026e-01 5.862599999999999756e-02 8.532570000000000432e-01 5.562479999999999647e-01 -2.328989999999999949e-01 3.422060000000000102e-01 4.546499999999999986e-01 4.247480000000000144e-01 1.188800999999999997e+00 -6.154129999999999878e-01 -9.397689999999999655e-01 -2.342349999999999988e-01 -1.034407000000000076e+00 5.419559999999999933e-01 1.385804000000000036e+00 -9.210120000000000529e-01 -5.512540000000000218e-01
-2.321110000000000118e-01 -1.223146999999999984e+00 2.533440000000000136e-01 -1.175872999999999946e+00 -7.053899999999999615e-01 -3.836740000000000150e-01 -9.947300000000000586e-02 -1.009349999999999969e-01 -2.335369999999999946e-01 1.760899999999999965e-02 1.121461999999999959e+00 1.055636999999999937e+00 3.453300000000000120e-02 2.140130000000000088e-01 -3.894099999999999784e-01 -2.342530000000000001e+00 5.485689999999999733e-01 2.690779999999999839e-01 -3.075299999999999909e-02 -1.583104999999999984e+00 2.436079999999999912e-01 -3.777920000000000167e-01 7.859429999999999472e-01 -1.089258999999999977e+00 -8.153259999999999952e-01 -3.006420000000000203e-01 7.455499999999999627e-02 2.368810000000000082e-01 -8.064780000000000282e-01 -3.959309999999999774e-01 2.700000000000000178e-01 2.342980000000000063e-01 1.158769999999999939e-01 -1.252353999999999967e+00 -5.247899999999999787e-01 -5.864380000000000148e-01 -4.362980000000000191e-01 1.616983999999999977e+00 1.767340000000000022e-01 4.713479999999999892e-01 -1.228871999999999964e+00 1.551800000000000124e-01 8.194609999999999950e-01 -7.385680000000000023e-01 5.377900000000000041e-02 2.894599999999999951e-01 2.454969999999999930e-01 -1.048830000000000040e-01 1.328197000000000072e+00 2.962310000000000221e-01 -6.405490000000000350e-01 9.933429999999999760e-01 -3.486899999999999722e-02 5.586809999999999832e-01 6.449049999999999505e-01 2.604000000000000203e-01 -3.804100000000000259e-01 4.315869999999999984e-01 5.171700000000000186e-01 2.446399999999999963e-02 2.600199999999999734e-01 4.309000000000000330e-02 3.559120000000000061e-01 2.101089999999999902e-01 1.062807000000000057e+00 -6.435110000000000552e-01 5.407870000000000177e-01 -6.160480000000000400e-01 -1.222677999999999932e+00 2.123629999999999962e-01 5.361569999999999947e-01 9.273150000000000004e-01 -3.959079999999999822e-01 -5.686900000000000288e-02 -3.278500000000000164e-02 9.269900000000000362e-02 -9.181200000000000472e-02 9.023149999999999782e-01 -1.150600000000000060e-02 2.020500000000000074e-02 3.788420000000000121e-01 -1.027549999999999963e+00 5.886179999999999746e-01 -7.880099999999999605e-02 1.662986000000000075e+00 -2.990019999999999900e-01 3.704500000000000154e-02 -3.188139999999999863e-01 2.190830000000000000e-01 5.995000000000000329e-01
1.819040000000000101e-01 1.110630999999999924e+00 -1.190090000000000037e-01 -8.088999999999999524e-01 -5.811520000000000019e-01 1.027180000000000037e-01 -7.391750000000000265e-01 -2.663400000000000142e-02 -4.826170000000000182e-01 1.086022999999999961e+00 1.808159999999999989e+00 4.300129999999999786e-01 8.300840000000000440e-01 -2.482030000000000070e-01 6.887300000000000366e-02 -3.711699999999999999e-01 6.568140000000000089e-01 -2.383639999999999926e-01 -3.584289999999999976e-01 1.009406000000000025e+00 3.570499999999999785e-01 -9.619849999999999790e-01 -1.375389999999999946e-01 -6.384090000000000042e-01 -1.067202999999999902e+00 -1.546379999999999977e-01 -4.239959999999999840e-01 1.083890000000000020e+00 -4.062660000000000160e-01 4.401680999999999955e+00 1.675879999999999870e-01 -1.750780000000000114e-01 1.647415000000000074e+00 -4.448380000000000112e-01 4.267830000000000235e-01 9.521610000000000351e-01 4.657020000000000048e-01 -7.340470000000000050e-01 2.013349999999999862e-01 8.407839999999999758e-01 9.967169999999999641e-01 3.643489999999999784e-01 -2.570819999999999772e-01 -4.195119999999999960e-01 -3.497680000000000233e-01 4.786250000000000226e-01 6.185000000000000393e-03 2.139800000000000035e-01 6.991629999999999789e-01 -8.360670000000000046e-01 -6.007679999999999687e-01 2.117960000000000120e-01 3.672050000000000036e-01 7.064730000000000176e-01 2.232939999999999925e-01 -6.951540000000000497e-01 3.047839999999999994e-01 1.247420999999999891e+00 8.795690000000000452e-01 -1.055709999999999982e-01 3.086659999999999959e-01 -4.498590000000000089e-01 4.123020000000000018e-01 3.715609999999999746e-01 -1.990020000000000122e-01 -3.826010999999999829e+00 -9.233449999999999713e-01 -1.207146000000000052e+00 -1.047951999999999995e+00 -3.924670000000000103e-01 9.138100000000000389e-02 4.032999999999999780e-02 -1.183132999999999990e+00 -6.295330000000000092e-01 -1.207494000000000067e+00 -5.107800000000000118e-01 9.662119999999999598e-01 -6.788579999999999615e-01 -3.804540000000000144e-01 2.406889999999999863e-01 3.842189999999999772e-01 -6.411940000000000417e-01 -6.762080000000000313e-01 -4.008410000000000029e-01 -2.066700000000000134e-02 -3.927930000000000033e-01 -1.566790000000000127e-01 8.643210000000000059e-01 -5.909219999999999473e-01 -3.113429999999999809e-01
-9.498199999999999699e-02 -3.973140000000000005e-01 -3.196820000000000217e-01 -2.407700000000000118e-02 6.072030000000000483e-01 5.219439999999999635e-01 5.640039999999999498e-01 -7.184340000000000170e-01 -9.226600000000000079e-02 3.978199999999999792e-02 1.483662000000000036e+00 -3.510980000000000212e-01 3.259759999999999880e-01 -2.847779999999999756e-01 -3.871290000000000009e-01 7.437730000000000175e-01 -1.328209999999999946e-01 -2.204840000000000133e-01 -7.533860000000000001e-01 -1.798970000000000014e-01 -2.932440000000000047e-01 4.441620000000000013e-01 -2.575589999999999824e-01 3.132650000000000157e-01 -6.151199999999999724e-02 5.865000000000000074e-02 -1.952990000000000004e-01 2.133909999999999973e-01 2.899180000000000090e-01 -8.284129999999999550e-01 -1.950510000000000022e-01 5.093590000000000062e-01 1.093540000000000068e-01 2.794030000000000125e-01 2.683809999999999807e-01 -3.598699999999999816e-02 8.536859999999999449e-01 -4.348210000000000131e-01 -1.892439999999999956e-01 -7.534299999999999331e-02 7.934940000000000326e-01 1.770509999999999862e-01 -5.363609999999999767e-01 8.079730000000000523e-01 2.079570000000000030e-01 -2.765300000000000050e-02 4.565350000000000241e-01 -3.274300000000000127e-02 -1.125356000000000023e+00 -1.052364000000000077e+00 5.530999999999999805e-02 3.796490000000000142e-01 -1.448560000000000125e-01 3.485949999999999882e-01 3.822079999999999922e-01 -3.118900000000000006e-01 1.996870000000000034e-01 -6.806130000000000235e-01 8.794899999999999940e-02 -3.670970000000000066e-01 1.735260000000000136e-01 1.503470000000000084e-01 2.127739999999999909e-01 4.974469999999999725e-01 6.640719999999999956e-01 5.547819999999999974e-01 -4.756200000000000011e-02 -4.666500000000000092e-01 9.378799999999999637e-02 9.744999999999999496e-02 4.465759999999999730e-01 -9.017999999999999627e-02 1.735410000000000008e-01 -7.479059999999999597e-01 2.562010000000000121e-01 -1.720919999999999950e-01 -8.333049999999999624e-01 7.606049999999999756e-01 -1.592250000000000054e-01 -2.732319999999999749e-01 -6.162069999999999492e-01 -4.753080000000000083e-01 3.489450000000000052e-01 -1.260179999999999911e-01 -7.068000000000000671e-02 -4.606850000000000112e-01 3.694470000000000254e-01 -6.687959999999999461e-01 -2.765520000000000200e-01 -3.566799999999999832e-02
-5.981399999999999911e-02 1.439828000000000108e+00 8.725500000000000478e-01 1.944539000000000017e+00 -2.339186000000000210e+00 2.505599999999999841e-02 -5.433120000000000172e-01 -1.031935000000000047e+00 -5.443300000000000222e-02 5.521289999999999809e-01 -4.138769999999999949e-01 1.048275999999999986e+00 -4.211030000000000051e-01 6.526079999999999659e-01 -6.196439999999999726e-01 1.882109999999999894e-01 6.207679999999999865e-01 1.640168000000000070e+00 7.116900000000000448e-01 1.114539999999999975e-01 -2.797609999999999819e-01 -4.921690000000000231e-01 1.032899000000000012e+00 -9.815699999999999426e-02 -6.066499999999999670e-02 2.812810000000000032e-01 -4.334640000000000160e-01 -4.694400000000000239e-01 -3.531799999999999939e-01 -7.670399999999999441e-02 -2.106999999999999932e-03 -5.923410000000000064e-01 2.419366000000000128e+00 1.337444000000000077e+00 -2.926302999999999876e+00 -1.359680000000000000e+00 -9.189929999999999488e-01 -7.521670000000000300e-01 3.951439999999999952e-01 4.721679999999999766e-01 -6.718039999999999567e-01 4.866499999999999992e-02 6.442900000000000016e-02 -8.627150000000000096e-01 1.938390000000000113e-01 -1.310409999999999908e-01 6.051750000000000185e-01 3.559249999999999914e-01 -8.461309999999999665e-01 1.352599999999999983e-02 1.721689999999999887e-01 -1.170252999999999988e+00 2.867672000000000221e+00 -3.438780000000000170e-01 -7.155190000000000161e-01 -7.692620000000000013e-01 -1.091564999999999896e+00 -1.569784999999999986e+00 2.884179000000000048e+00 9.275390000000000024e-01 1.727849999999999941e-01 -4.190650000000000208e-01 8.107499999999999429e-02 -2.147660000000000124e-01 -3.279980000000000118e-01 1.474699999999999969e-02 9.726890000000000258e-01 -1.282499999999999959e-02 -1.947203000000000017e+00 1.351271000000000111e+00 1.458019999999999872e-01 8.417780000000000262e-01 3.884079999999999755e-01 4.749669999999999725e-01 -1.470360000000000000e-01 3.012079999999999758e-01 3.843449999999999922e-01 1.285409999999999886e-01 -4.600179999999999825e-01 -1.524099999999999934e-02 -1.317542999999999909e+00 -2.648539999999999783e-01 -2.656100000000000128e-01 -1.051633999999999958e+00 1.478800000000000080e-02 2.344449999999999867e-01 -8.235700000000000243e-01 -1.317919999999999925e-01 4.558999999999999685e-03 4.794350000000000001e-01
4.214180000000000148e-01 -1.299692000000000069e+00 1.020607999999999960e+00 1.119471000000000105e+00 -2.787059000000000175e+00 -1.184196999999999944e+00 1.409324999999999939e+00 -3.382939999999999836e-01 6.592230000000000034e-01 -2.693869999999999876e-01 -6.697229999999999572e-01 5.714559999999999640e-01 -4.637439999999999896e-01 1.199044999999999916e+00 1.002497999999999889e+00 2.767109999999999848e-01 3.493800000000000239e-01 -6.661839999999999984e-01 9.549419999999999575e-01 6.154290000000000038e-01 1.334619999999999973e-01 4.296260000000000079e-01 6.200900000000000162e-02 1.285050000000000081e-01 -1.912913000000000086e+00 -7.254140000000000033e-01 7.721660000000000190e-01 4.682979999999999920e-01 -1.068370000000000014e-01 5.398960000000000425e-01 4.969810000000000061e-01 -1.650669999999999915e-01 -3.441049999999999942e-01 4.873709999999999987e-01 1.785255000000000036e+00 1.666023000000000032e+00 1.663693000000000088e+00 2.279229999999999867e-01 5.971159999999999801e-01 -1.228089999999999904e+00 -5.462230000000000141e-01 -6.328359999999999541e-01 6.136139999999999928e-01 -9.415080000000000116e-01 -8.657280000000000530e-01 4.931059999999999888e-01 1.372778999999999971e+00 -2.915809999999999791e-01 -1.597083999999999948e+00 -1.596414000000000000e+00 1.278562999999999894e+00 -8.855899999999999883e-01 1.441956999999999933e+00 4.689659999999999940e-01 6.100929999999999964e-01 -2.042279999999999929e-01 -4.999219999999999775e-01 7.315660000000000496e-01 6.520660000000000345e-01 7.183739999999999570e-01 -3.345319999999999960e-01 -7.786200000000000065e-02 -3.935230000000000117e-01 -7.198290000000000521e-01 -1.030569999999999986e+00 -8.274900000000000311e-02 -5.832169999999999854e-01 1.784412000000000109e+00 -3.221169999999999867e-01 -4.657910000000000106e-01 5.695810000000000040e-01 -2.713659999999999961e-01 5.403899999999999676e-02 -6.752829999999999666e-01 -8.442889999999999562e-01 -8.342509999999999648e-01 -4.299700000000000050e-02 -1.659607999999999972e+00 -1.254825999999999997e+00 2.727029999999999732e-01 -2.046875000000000000e+00 -2.960570000000000146e-01 6.592029999999999834e-01 3.366580000000000128e-01 9.292700000000000404e-01 -1.350540000000000074e-01 3.412870000000000070e-01 -3.142119999999999913e-01 3.504840000000000177e-01 -1.297190000000000010e-01
-6.705929999999999946e-01 1.719751999999999947e+00 -3.389440000000000230e-01 -1.392759999999999998e+00 1.432500000000000107e+00 -2.221279999999999921e-01 -1.294405000000000028e+00 1.536049999999999915e-01 -6.023830000000000018e-01 1.405896000000000035e+00 6.836999999999999744e-01 -5.554459999999999953e-01 8.732149999999999634e-01 -2.942040000000000211e-01 -1.321563999999999961e+00 4.536310000000000064e-01 3.526000000000000054e-03 -8.025000000000000189e-02 1.202050000000000063e-01 -4.945689999999999809e-01 3.683009999999999895e-01 4.686810000000000143e-01 -5.055690000000000461e-01 -9.360799999999999677e-02 1.272380999999999984e+00 2.032684999999999853e+00 3.143480000000000163e-01 9.739200000000000634e-02 -1.117536000000000085e+00 4.567100000000000048e-01 -1.486920000000000019e+00 1.019357000000000069e+00 5.014490000000000336e-01 -1.307115999999999945e+00 2.347009999999999930e-01 -9.409089999999999954e-01 -6.152339999999999476e-01 -3.761180000000000079e-01 -1.009897999999999962e+00 4.560989999999999767e-01 5.030099999999999849e-02 1.175750000000000073e+00 -3.045590000000000241e-01 7.950549999999999562e-01 6.843599999999999683e-02 -5.962480000000000002e-01 -1.045986000000000082e+00 6.606499999999999873e-02 2.298725999999999825e+00 3.129660000000000220e-01 -1.561410000000000020e-01 1.317445999999999895e+00 -1.171135000000000037e+00 -8.797099999999999365e-02 -9.556179999999999675e-01 -1.264664000000000010e+00 9.943650000000000544e-01 -9.040390000000000370e-01 -1.026535999999999893e+00 -2.253469999999999918e-01 8.372009999999999730e-01 7.345869999999999900e-01 3.627949999999999786e-01 2.941030000000000033e-01 3.787869999999999848e-01 -3.841430000000000122e-01 6.166220000000000034e-01 -3.564519999999999911e-01 4.665009999999999990e-01 8.776299999999999379e-02 2.083909999999999929e-01 1.111323999999999979e+00 -2.062599999999999850e-02 2.295049999999999868e-01 -6.676649999999999530e-01 -1.243762000000000034e+00 -1.029390000000000027e-01 3.045619999999999994e-01 1.045080000000000009e+00 -1.767125000000000057e+00 6.223539999999999628e-01 1.832699999999999954e-02 -4.926369999999999916e-01 -3.940049999999999941e-01 -7.795840000000000547e-01 6.335799999999999765e-02 3.742399999999999893e-02 -9.130599999999999827e-02 -3.730599999999999888e-02 2.300159999999999982e-01
4.663280000000000203e-01 -1.272999999999999909e+00 -6.650110000000000188e-01 4.577749999999999875e-01 3.346899999999999875e-01 5.295560000000000267e-01 -1.296670000000000045e-01 -3.306310000000000082e-01 7.598059999999999814e-01 6.033239999999999714e-01 1.648120999999999947e+00 -3.714430000000000232e-01 -5.478309999999999569e-01 4.866619999999999835e-01 -7.308120000000000172e-01 1.770110000000000017e-01 8.972299999999999720e-02 1.451790000000000025e-01 1.027676000000000034e+00 -2.599299999999999944e-01 5.046270000000000477e-01 -2.159629999999999883e-01 -8.317879999999999718e-01 3.915540000000000131e-01 -1.449640000000000095e-01 -4.297799999999999954e-01 5.651099999999999873e-02 5.720969999999999667e-01 2.326050000000000062e-01 -6.403300000000000658e-02 -3.908659999999999912e-01 -1.269970999999999961e+00 -3.087239999999999984e-01 2.413669999999999982e-01 1.324608999999999925e+00 1.330654000000000003e+00 1.396529999999999994e-01 4.679150000000000253e-01 -1.102999999999999953e-01 -7.745640000000000303e-01 6.196279999999999566e-01 -4.213999999999999690e-02 1.595139999999999891e-01 -6.306469999999999576e-01 1.122950000000000059e-01 -6.257949999999999902e-01 8.618320000000000425e-01 -6.239109999999999934e-01 -6.248590000000000533e-01 -8.494639999999999969e-01 -9.251800000000000301e-02 -3.636240000000000028e-01 -2.469119999999999926e-01 -4.623050000000000215e-01 4.750550000000000050e-01 -2.446170000000000011e-01 5.165809999999999569e-01 1.722239999999999882e-01 -1.074040000000000106e+00 -6.829739999999999700e-01 3.094999999999999973e-01 2.911770000000000191e-01 2.731370000000000187e-01 1.679620000000000002e-01 -9.130800000000000027e-02 7.282549999999999857e-01 -7.357690000000000063e-01 -8.551260000000000527e-01 -1.798119999999999996e-01 -2.736990000000000256e-01 1.740669999999999995e-01 4.852960000000000051e-01 3.480190000000000228e-01 -1.335072999999999954e+00 1.102120000000000044e-01 -3.728460000000000107e-01 1.360943999999999932e+00 5.390049999999999564e-01 -4.510069999999999912e-01 -4.719499999999999806e-01 -1.570554000000000006e+00 -1.265304999999999902e+00 -5.716799999999999660e-02 1.992069999999999952e-01 8.864229999999999610e-01 1.380324000000000106e+00 1.109979999999999994e-01 7.128299999999999637e-01 9.791090000000000071e-01 -8.883370000000000433e-01
1.394170000000000131e-01 -2.890099999999999961e-02 1.639760000000000106e-01 -7.642500000000000682e-02 5.552270000000000261e-01 3.220259999999999789e-01 -4.701899999999999830e-02 4.641500000000000070e-01 4.707350000000000145e-01 -3.528400000000000286e-02 -5.777459999999999818e-01 3.810410000000000186e-01 1.385280999999999985e+00 -3.846459999999999879e-01 3.942800000000000193e-01 -9.388739999999999863e-01 -1.691707000000000072e+00 -6.436770000000000547e-01 -4.118260000000000254e-01 -1.307811999999999975e+00 -7.856200000000000683e-02 -4.262929999999999775e-01 -1.014059999999999961e+00 5.625000000000000000e-01 -2.178899999999999934e-02 7.735360000000000014e-01 -2.775299999999999989e-01 8.807999999999999857e-03 2.509569999999999856e-01 -4.170880000000000143e-01 1.007667000000000090e+00 6.177540000000000253e-01 -1.004350999999999994e+00 1.025082000000000049e+00 8.488609999999999767e-01 1.126951000000000036e+00 -9.857479999999999576e-01 5.087209999999999788e-01 8.115100000000000091e-02 -3.781559999999999921e-01 2.779309999999999836e-01 1.681610000000000049e-01 6.623099999999999821e-02 -3.242949999999999999e-01 -3.250029999999999863e-01 3.879619999999999735e-01 -5.595339999999999758e-01 5.988899999999999779e-02 -2.460009999999999974e-01 -5.720399999999999791e-02 -5.182970000000000077e-01 -4.462450000000000028e-01 -7.824470000000000036e-01 -1.396082000000000045e+00 -4.278500000000000081e-01 6.134200000000000069e-02 -1.593110000000000082e-01 -2.364030000000000020e-01 -5.014600000000000307e-02 -8.469280000000000141e-01 -8.720740000000000158e-01 9.239140000000000130e-01 4.581709999999999949e-01 -2.874099999999999919e-02 5.187100000000000044e-01 -7.522569999999999535e-01 2.977960000000000051e-01 8.635249999999999870e-01 7.775440000000000129e-01 6.659700000000000342e-02 -3.906270000000000020e-01 2.447850000000000026e-01 -1.051134999999999931e+00 1.236690000000000011e-01 9.956099999999999672e-02 3.574979999999999825e-01 3.916160000000000196e-01 7.247040000000000148e-01 -2.186049999999999938e-01 1.468210000000000071e-01 -2.020929999999999949e-01 1.874619999999999898e-01 -4.124760000000000093e-01 -1.031320000000000014e-01 8.774119999999999697e-01 -5.289530000000000065e-01 2.952560000000000184e-01 1.041255000000000042e+00 7.838190000000000435e-01 3.935790000000000122e-01
-1.435068999999999928e+00 3.356279999999999819e-01 -6.336819999999999675e-01 -3.101110000000000255e-01 -8.299840000000000551e-01 5.407610000000000472e-01 4.475109999999999921e-01 6.990210000000000035e-01 1.716590000000000060e-01 5.311199999999999949e-02 -8.316860000000000364e-01 -1.901239999999999875e-01 1.112732000000000054e+00 -1.069699999999999956e-01 8.028129999999999988e-01 -2.591794999999999849e+00 -3.662974999999999870e+00 -1.527498999999999940e+00 6.239350000000000174e-01 2.250270000000000048e-01 5.437549999999999883e-01 -7.570599999999999552e-01 1.065968999999999944e+00 -5.248549999999999605e-01 2.288840000000000041e-01 -5.860159999999999814e-01 -4.975910000000000055e-01 -4.479310000000000236e-01 6.698979999999999935e-01 1.217459999999999931e-01 -1.749920000000000087e-01 3.739250000000000074e-01 -1.635949999999999904e-01 6.631359999999999477e-01 8.969549999999999468e-01 1.286090000000000011e-01 7.908640000000000114e-01 3.944860000000000033e-01 -3.070399999999999796e-01 -1.238985000000000003e+00 -4.672209999999999974e-01 -3.102659999999999862e-01 8.484530000000000127e-01 -2.247589999999999866e-01 -3.033000000000000106e-03 -9.175300000000000122e-02 1.006313000000000013e+00 2.720339999999999980e-01 -1.128376999999999963e+00 -4.150260000000000060e-01 3.492339999999999889e-01 4.089829999999999854e-01 6.534860000000000113e-01 1.654760000000000120e-01 4.300229999999999886e-01 6.269900000000000473e-01 -1.014772999999999925e+00 4.445999999999999952e-01 -1.985490000000000033e-01 4.133749999999999925e-01 9.697100000000000164e-02 1.772380000000000067e-01 -5.459920000000000329e-01 -6.203920000000000545e-01 -1.332381000000000038e+00 6.310470000000000246e-01 3.643029999999999879e-01 1.399199999999999923e-02 -6.777490000000000459e-01 6.434520000000000239e-01 -7.217850000000000099e-01 2.676569999999999783e-01 -1.533306999999999976e+00 -1.356499999999999928e-01 -7.736250000000000071e-01 -5.552120000000000388e-01 3.941189999999999971e-01 4.584400000000000280e-02 2.619085000000000107e+00 3.106911000000000200e+00 1.623245999999999967e+00 -1.823490000000000111e-01 -6.183600000000000207e-01 1.889820000000000111e-01 8.078239999999999865e-01 2.966079999999999828e-01 7.518679999999999808e-01 4.834640000000000049e-01 -8.052030000000000021e-01 1.517179999999999918e-01
-8.915769999999999529e-01 -8.260199999999999765e-01 -5.335710000000000175e-01 -5.186600000000000099e-01 -5.738210000000000255e-01 5.955700000000000438e-01 1.664771999999999919e+00 -8.995670000000000055e-01 -9.307480000000000198e-01 -4.261100000000000304e-02 -1.164639999999999981e-01 6.582270000000000065e-01 3.438370000000000037e-01 7.382969999999999811e-01 -2.247510000000000063e-01 -8.124970000000000248e-01 9.630199999999999871e-01 5.771089999999999831e-01 2.361900000000000110e-02 2.023290000000000088e-01 -2.949479999999999880e-01 9.135889999999999844e-01 -6.595590000000000064e-01 -5.077770000000000339e-01 9.786059999999999759e-01 -5.875200000000000422e-01 1.192641000000000062e+00 6.776339999999999586e-01 -2.125039999999999984e-01 -2.894880000000000231e-01 1.175866000000000078e+00 -2.224140000000000006e-01 -3.527640000000000220e-01 3.748940000000000050e-01 -1.127585000000000059e+00 -5.440819999999999546e-01 1.253110000000000057e-01 -1.443129999999999968e-01 9.207950000000000301e-01 -2.252533000000000118e+00 -4.107040000000000135e-01 -6.214030000000000387e-01 4.380680000000000129e-01 -5.217779999999999641e-01 -6.739599999999999758e-02 -1.072062999999999988e+00 3.910370000000000235e-01 3.159420000000000006e-01 2.251519999999999910e-01 2.264150000000000051e-01 1.847870000000000068e-01 -6.969450000000000367e-01 2.054559999999999997e-01 5.500169999999999781e-01 -9.308099999999999707e-02 1.083690000000000042e+00 -3.072869999999999768e-01 6.466399999999999926e-02 1.305444000000000049e+00 6.097939999999999472e-01 2.352400000000000047e-01 -1.008802999999999894e+00 6.074199999999999738e-02 4.075139999999999874e-01 7.947149999999999492e-01 -2.476099999999999829e-02 7.419689999999999896e-01 -6.640220000000000011e-01 1.084832999999999936e+00 -5.125380000000000491e-01 6.131579999999999808e-01 -9.487199999999999800e-02 -1.004029000000000060e+00 -1.278749999999999887e-01 -3.515409999999999924e-01 -1.377649999999999986e-01 2.732620000000000049e-01 4.863060000000000160e-01 -9.423439999999999594e-01 2.356250000000000011e-01 -3.324770000000000225e-01 2.014180000000000137e-01 -3.748599999999999849e-02 -9.062489999999999712e-01 2.226190000000000113e-01 -1.354140000000000066e-01 -2.151619999999999922e-01 1.618709999999999871e-01 1.243398999999999921e+00 -6.374840000000000506e-01