7.322533696459577968e+00 1.073364804436261654e-18 5.923809619917731120e-23 -3.639612622800322939e+00 6.373982298489818454e+00 1.525201406143977736e-22 4.722182844541705836e-06 -3.578284288181773563e-06 1.995832899999932053e+01
7.322533539459809226e+00 1.458119870080038518e-18 -1.525201406143977736e-22 -3.639612565789019261e+00 6.373982168525963665e+00 -5.923809619917731120e-23 4.695205133437368262e-06 -3.565238163957483318e-06 1.995832878699932422e+01
7.322533140458681977e+00 1.376979760224619881e-18 -1.525201406143977736e-22 -3.639612400703625017e+00 6.373981795084709745e+00 -5.923809619917731120e-23 4.693225696612728655e-06 -3.553234783603332880e-06 1.995832805999932802e+01
7.322532513457890246e+00 -1.640170964717721654e-19 -1.525201406143977736e-22 -3.639612124738954790e+00 6.373981152647822945e+00 1.525201406143977736e-22 4.794194855985993209e-06 -3.571407442011464923e-06 1.995832688799930921e+01
7.322531653457438949e+00 -7.669030805289929446e-19 -1.525201406143977736e-22 -3.639611723954250255e+00 6.373980202195681066e+00 -5.923809619917731120e-23 5.084066343101455640e-06 -3.646903112170837690e-06 1.995832530699926366e+01
7.322530572455598019e+00 1.765011858387890520e-18 2.709963330127523960e-22 -3.639611196275430949e+00 6.373978921215949889e+00 -5.923809619917731120e-23 5.647797309425542399e-06 -3.804867058343991858e-06 1.995832339699917668e+01
7.322529300452327305e+00 1.377412825132233140e-18 -1.525201406143977736e-22 -3.639610546730035257e+00 6.373977319691674026e+00 1.525201406143977736e-22 6.540360325708442326e-06 -4.061393273011222592e-06 1.995832123199903307e+01
7.322527850451026943e+00 1.547342040388660830e-18 5.923809619917731120e-23 -3.639609776591350432e+00 6.373975401611017944e+00 -5.923809619917731120e-23 7.791743380917248273e-06 -4.423533027253015234e-06 1.995831883399883466e+01
7.322526199448310180e+00 1.159925804466601750e-18 2.709963330127523960e-22 -3.639608870632763171e+00 6.373973126970434500e+00 -5.923809619917731120e-23 9.458924175794601081e-06 -4.904383736548857319e-06 1.995831616599856773e+01
7.322524318445930547e+00 1.382050207280762791e-18 5.923809619917731120e-23 -3.639607805036417787e+00 6.373970440252376690e+00 1.525201406143977736e-22 1.162586328183248520e-05 -5.527088960306706145e-06 1.995831320199822301e+01
7.384363375000000396e+00 0.000000000000000000e+00 0.000000000000000000e+00 -3.559306322999999939e+00 6.476883146999999674e+00 0.000000000000000000e+00 -2.990563589999999938e-01 -6.015229999999999883e-02 1.957711492500000006e+01
7.384363521000000041e+00 0.000000000000000000e+00 0.000000000000000000e+00 -3.559305880000000144e+00 6.476883528000000112e+00 0.000000000000000000e+00 -2.990571929999999989e-01 -6.015255199999999802e-02 1.957711353699999890e+01
7.384363650000000057e+00 0.000000000000000000e+00 0.000000000000000000e+00 -3.559304833000000112e+00 6.476884188999999736e+00 0.000000000000000000e+00 -2.990588579999999830e-01 -6.015313500000000341e-02 1.957711046000000010e+01
7.384363729999999570e+00 0.000000000000000000e+00 0.000000000000000000e+00 -3.559303117999999877e+00 6.476885111999999722e+00 0.000000000000000000e+00 -2.990613180000000204e-01 -6.015407600000000077e-02 1.957710573900000028e+01
7.384363734999999984e+00 0.000000000000000000e+00 0.000000000000000000e+00 -3.559300641000000098e+00 6.476886297000000070e+00 0.000000000000000000e+00 -2.990645800000000243e-01 -6.015542100000000059e-02 1.957709934700000076e+01
7.384363636999999869e+00 0.000000000000000000e+00 0.000000000000000000e+00 -3.559297359999999966e+00 6.476887712999999991e+00 0.000000000000000000e+00 -2.990685829999999990e-01 -6.015718700000000085e-02 1.957709138999999965e+01
7.384363403000000048e+00 0.000000000000000000e+00 0.000000000000000000e+00 -3.559293323999999981e+00 6.476889285999999579e+00 0.000000000000000000e+00 -2.990731690000000276e-01 -6.015933999999999865e-02 1.957708214199999830e+01
7.384362996000000123e+00 0.000000000000000000e+00 0.000000000000000000e+00 -3.559288567999999930e+00 6.476890949000000397e+00 0.000000000000000000e+00 -2.990782180000000068e-01 -6.016185400000000072e-02 1.957707177800000053e+01
7.384362377000000421e+00 0.000000000000000000e+00 0.000000000000000000e+00 -3.559283015000000105e+00 6.476892684000000067e+00 0.000000000000000000e+00 -2.990837490000000098e-01 -6.016476700000000094e-02 1.957706021599999957e+01
7.384361507000000380e+00 0.000000000000000000e+00 0.000000000000000000e+00 -3.559276554000000203e+00 6.476894477000000094e+00 0.000000000000000000e+00 -2.990897980000000178e-01 -6.016813199999999917e-02 1.957704733699999977e+01
7.430346078000000354e+00 0.000000000000000000e+00 0.000000000000000000e+00 -3.791470842999999924e+00 6.549639019999999867e+00 0.000000000000000000e+00 -5.804326410000000269e-01 -5.378843189999999996e-01 2.028454841599999980e+01
7.430346877999999933e+00 0.000000000000000000e+00 0.000000000000000000e+00 -3.791471612000000047e+00 6.549640059999999764e+00 0.000000000000000000e+00 -5.804341480000000386e-01 -5.378855449999999649e-01 2.028455064799999974e+01
7.430348330000000168e+00 0.000000000000000000e+00 0.000000000000000000e+00 -3.791473021999999915e+00 6.549641971999999868e+00 0.000000000000000000e+00 -5.804372230000000021e-01 -5.378876889999999467e-01 2.028455470100000113e+01
7.430350447000000358e+00 0.000000000000000000e+00 0.000000000000000000e+00 -3.791475069000000087e+00 6.549644757000000261e+00 0.000000000000000000e+00 -5.804419149999999750e-01 -5.378906970000000287e-01 2.028456060099999902e+01
7.430353294999999747e+00 0.000000000000000000e+00 0.000000000000000000e+00 -3.791477797000000205e+00 6.549648477999999940e+00 0.000000000000000000e+00 -5.804483759999999881e-01 -5.378945960000000026e-01 2.028456850899999964e+01
7.430356877000000360e+00 0.000000000000000000e+00 0.000000000000000000e+00 -3.791481189000000196e+00 6.549653118000000163e+00 0.000000000000000000e+00 -5.804566249999999483e-01 -5.378993239999999565e-01 2.028457841000000172e+01
7.430361089999999891e+00 0.000000000000000000e+00 0.000000000000000000e+00 -3.791485134999999840e+00 6.549658523999999815e+00 0.000000000000000000e+00 -5.804664579999999630e-01 -5.379046819999999673e-01 2.028459000100000154e+01
7.430365851000000355e+00 0.000000000000000000e+00 0.000000000000000000e+00 -3.791489539000000075e+00 6.549664574000000350e+00 0.000000000000000000e+00 -5.804777239999999727e-01 -5.379105020000000126e-01 2.028460302099999879e+01
7.430371209999999671e+00 0.000000000000000000e+00 0.000000000000000000e+00 -3.791494435000000163e+00 6.549671313000000161e+00 0.000000000000000000e+00 -5.804905780000000348e-01 -5.379167849999999529e-01 2.028461758399999937e+01
7.430377259000000123e+00 0.000000000000000000e+00 0.000000000000000000e+00 -3.791499882000000099e+00 6.549678829000000313e+00 0.000000000000000000e+00 -5.805052410000000052e-01 -5.379235690000000458e-01 2.028463389599999900e+01
7.336134709000000420e+00 0.000000000000000000e+00 0.000000000000000000e+00 -3.533820819999999863e+00 6.331326659000000134e+00 0.000000000000000000e+00 -3.392812519999999776e-01 5.871999789999999830e-01 1.994461736599999924e+01
7.336134520999999964e+00 0.000000000000000000e+00 0.000000000000000000e+00 -3.533820133999999946e+00 6.331326257999999818e+00 0.000000000000000000e+00 -3.392821019999999743e-01 5.872016410000000519e-01 1.994461696200000134e+01
7.336134011999999593e+00 0.000000000000000000e+00 0.000000000000000000e+00 -3.533818724000000078e+00 6.331325388999999859e+00 0.000000000000000000e+00 -3.392837930000000002e-01 5.872048960000000317e-01 1.994461581799999905e+01
7.336133174000000423e+00 0.000000000000000000e+00 0.000000000000000000e+00 -3.533816623999999962e+00 6.331324072000000136e+00 0.000000000000000000e+00 -3.392863400000000196e-01 5.872097240000000440e-01 1.994461392099999841e+01
7.336131973999999722e+00 0.000000000000000000e+00 0.000000000000000000e+00 -3.533813821999999938e+00 6.331322291000000213e+00 0.000000000000000000e+00 -3.392898120000000239e-01 5.872161980000000225e-01 1.994461119099999991e+01
7.336130408999999908e+00 0.000000000000000000e+00 0.000000000000000000e+00 -3.533810374999999837e+00 6.331320073999999742e+00 0.000000000000000000e+00 -3.392942050000000154e-01 5.872242519999999466e-01 1.994460761299999874e+01
7.336128509999999991e+00 0.000000000000000000e+00 0.000000000000000000e+00 -3.533806413999999840e+00 6.331317495999999601e+00 0.000000000000000000e+00 -3.392993970000000026e-01 5.872336070000000463e-01 1.994460324599999979e+01
7.336126292000000326e+00 0.000000000000000000e+00 0.000000000000000000e+00 -3.533802032000000093e+00 6.331314604000000124e+00 0.000000000000000000e+00 -3.393052950000000068e-01 5.872440519999999609e-01 1.994459809700000008e+01
7.336123712000000019e+00 0.000000000000000000e+00 0.000000000000000000e+00 -3.533797199999999972e+00 6.331311365000000357e+00 0.000000000000000000e+00 -3.393119669999999921e-01 5.872556580000000137e-01 1.994459204200000002e+01
7.336120726999999953e+00 0.000000000000000000e+00 0.000000000000000000e+00 -3.533791884000000216e+00 6.331307748000000402e+00 0.000000000000000000e+00 -3.393195230000000118e-01 5.872685560000000526e-01 1.994458496100000033e+01
7.118785450999999931e+00 0.000000000000000000e+00 0.000000000000000000e+00 -3.367628719999999909e+00 6.240927706999999991e+00 0.000000000000000000e+00 5.696819389999999705e-01 3.892074719999999988e-01 1.948281400000000119e+01
7.118783021999999683e+00 0.000000000000000000e+00 0.000000000000000000e+00 -3.367626505000000048e+00 6.240925840000000058e+00 0.000000000000000000e+00 5.696835199999999988e-01 3.892084940000000159e-01 1.948280899599999927e+01
7.118778155000000218e+00 0.000000000000000000e+00 0.000000000000000000e+00 -3.367622159000000170e+00 6.240922115000000048e+00 0.000000000000000000e+00 5.696864950000000150e-01 3.892104459999999877e-01 1.948279879000000037e+01
7.118770869999999640e+00 0.000000000000000000e+00 0.000000000000000000e+00 -3.367615723000000116e+00 6.240916559999999613e+00 0.000000000000000000e+00 5.696907839999999501e-01 3.892133489999999862e-01 1.948278344099999870e+01
7.118761034000000265e+00 0.000000000000000000e+00 0.000000000000000000e+00 -3.367607105999999906e+00 6.240909091999999880e+00 0.000000000000000000e+00 5.696964070000000158e-01 3.892172970000000176e-01 1.948276270499999896e+01
7.118748596999999734e+00 0.000000000000000000e+00 0.000000000000000000e+00 -3.367596311999999870e+00 6.240899691000000082e+00 0.000000000000000000e+00 5.697033049999999932e-01 3.892223400000000000e-01 1.948273650200000162e+01
7.118733837999999814e+00 0.000000000000000000e+00 0.000000000000000000e+00 -3.367583633999999826e+00 6.240888578999999936e+00 0.000000000000000000e+00 5.697112380000000087e-01 3.892283870000000090e-01 1.948270541600000172e+01
7.118717172000000204e+00 0.000000000000000000e+00 0.000000000000000000e+00 -3.367569458000000182e+00 6.240876087000000183e+00 0.000000000000000000e+00 5.697199480000000316e-01 3.892353000000000063e-01 1.948267033899999845e+01
7.118698640999999938e+00 0.000000000000000000e+00 0.000000000000000000e+00 -3.367553862999999925e+00 6.240862257999999940e+00 0.000000000000000000e+00 5.697293599999999625e-01 3.892430769999999929e-01 1.948263134800000174e+01
7.118677990000000122e+00 0.000000000000000000e+00 0.000000000000000000e+00 -3.367536687999999945e+00 6.240846912000000302e+00 0.000000000000000000e+00 5.697395419999999877e-01 3.892518360000000177e-01 1.948258789200000152e+01
