-1.129891082095024979e+00 6.330610503169705083e+00 5.564065383812542842e-02 -1.180296697132133810e+00 2.114449977584901053e+00 6.694480328033699301e+00 4.786754583344166036e+00 4.414993974801934229e+00 9.415899694675822218e+00 -1.103830588795791101e+00 1.958978051998063519e+00 1.939506030532333014e+01 4.863219948381778401e+00 4.259522478697079784e+00 1.667364967196551717e+01 1.274473991625627134e+00 2.036964323198314109e+00 3.364929986684281005e+00 2.408448367318120287e+00 4.337018658524286252e+00 1.334410001331580453e+01 4.812812554266479914e+00 4.338300079616845550e-02 1.003480934616283093e+01 2.231109425787833889e+00 7.864560086634565794e-02 1.274414970151500626e+01 1.093867021378508442e+00 2.061282065316861534e+00 1.601027001326784216e+01 1.451822769278625413e+00 6.295337458444544509e+00 2.764990298483726683e+00 2.589056048683851419e+00 4.312690495656100964e+00 6.031109986731387984e+00 4.904253981691216069e+00 2.603968124425677377e-01 1.269904935079927988e+01 2.175751749204386964e+00 4.251786612320077374e+00 8.985640038368430282e+00 5.823864087766358111e+00 1.844866991595507821e+00 1.647304935024012806e+01 4.803123202425831018e+00 4.098005299949280200e+00 1.238811966742759019e+01 1.381177948243508480e+00 1.886861511789894585e+00 6.021449960268024704e+00 -2.140940874214047884e+00 4.529115496329692903e+00 6.493880649759882218e+00 4.743324529414367774e+00 4.215287134482753828e+00 1.934510968484852000e+01 4.797056260627874380e+00 1.336704058287700725e-01 5.690479355438914588e+00 -1.221331816022100059e+00 6.113576271093651648e+00 2.719880649200036249e+00 8.261603446038020548e-01 2.262600158589081811e+00 1.317521006571268316e+01 1.464779819607512801e+00 5.976303499820196485e+00 1.987129027154017891e+01 2.218154322091162811e+00 3.976784347161834710e-01 9.892129728458375126e+00 2.301755119165811880e+00 4.487111033615123645e+00 1.600061003972984253e+01 -1.114123283616224480e+00 6.240302191808507537e+00 1.566964064455896022e+01 2.856761968212469416e+00 4.111382849786220817e+00 3.196049934287407801e+00 1.507182144905124144e+00 2.122195465274645976e+00 1.896479996163014903e+01 -1.120201104588426810e+00 2.275977832641962628e+00 2.408950332572521003e+00 -1.060400531417733383e+00 2.158694900186319821e+00 9.365940315151414453e+00
-1.132160412893612245e+00 6.331004383176365380e+00 4.867065417912680436e-02 -1.189050668135706923e+00 2.117984945709339595e+00 6.691420329508125597e+00 4.791961755669364997e+00 4.413335071857254377e+00 9.416099693833796636e+00 -1.108169437255999812e+00 1.959655469218684720e+00 1.939458030596932048e+01 4.870645269618893991e+00 4.268479799924517870e+00 1.667351967165827276e+01 1.281041043572343385e+00 2.035233095136459447e+00 3.374959985650844541e+00 2.406136745030290847e+00 4.336072609356563134e+00 1.332917001355683873e+01 4.810570233933011863e+00 3.617682273231664219e-02 1.003524934590041262e+01 2.234627079457828458e+00 7.726958597144269192e-02 1.274761970092603391e+01 1.092505162012157971e+00 2.048494374441366173e+00 1.600908001244477674e+01 1.444231856487603105e+00 6.300660441015025093e+00 2.763440299940405964e+00 2.592937068177543658e+00 4.319133871154087423e+00 6.033759986709807954e+00 4.906930302312185965e+00 2.582422349738796030e-01 1.269466935026376220e+01 2.166301489885826825e+00 4.245792756694510395e+00 8.980480039186039320e+00 5.820402554496051373e+00 1.849822914748293190e+00 1.647914935110389578e+01 4.790038556109282197e+00 4.101147668319208961e+00 1.239960966946243737e+01 1.396526133331267738e+00 1.879935267105304009e+00 6.030549957625467528e+00 -2.129187830963783945e+00 4.530885409766000294e+00 6.499010648294502701e+00 4.748596059468304098e+00 4.216178125693253342e+00 1.933981968419891473e+01 4.805799322783727234e+00 1.354554652219081279e-01 5.677869354385761902e+00 -1.219691152503115328e+00 6.119813475960295790e+00 2.719810649468154207e+00 8.254527545338374850e-01 2.269861378794343132e+00 1.317287006638228064e+01 1.460294510606813478e+00 5.973201161732596631e+00 1.987119027190791698e+01 2.221043785545410820e+00 4.032135048240477193e-01 9.880649728500531026e+00 2.296390652399352028e+00 4.466950172837277577e+00 1.600606003887158835e+01 -1.109666313791878078e+00 6.232674562329242995e+00 1.567380064334842515e+01 2.853960757716607510e+00 4.110677637281014540e+00 3.187459934614304213e+00 1.505118676973747460e+00 2.126018997975779090e+00 1.896225996221365051e+01 -1.124628566968408183e+00 2.283315409698622567e+00 2.425710333756155190e+00 -1.064042867067510389e+00 2.163181131542692093e+00 9.377100316002833225e+00
-1.134469727068774469e+00 6.331408331459354777e+00 4.155065452640552964e-02 -1.197914570785241661e+00 2.121560101700888268e+00 6.688310331000748121e+00 4.797238893351337907e+00 4.411656049679990588e+00 9.416279692980618066e+00 -1.112568285788132716e+00 1.960332988906729135e+00 1.939408030662352544e+01 4.878160846769415748e+00 4.277586967490871750e+00 1.667338967135052030e+01 1.287708043958651016e+00 2.033471696281608843e+00 3.385179984601377701e+00 2.403755088281264829e+00 4.335106680075934804e+00 1.331401001380586813e+01 4.808297708527133452e+00 2.885069650862585877e-02 1.003565934563263617e+01 2.238214698844119610e+00 7.587345163205037879e-02 1.275115970032591051e+01 1.091112875213279709e+00 2.035456735296613306e+00 1.600788001160614371e+01 1.436521165567725022e+00 6.306113628621318412e+00 2.761880301423727868e+00 2.596908275220337625e+00 4.325687092861511651e+00 6.036479986684579302e+00 4.909716520180809951e+00 2.560274699783303687e-01 1.269016934970846400e+01 2.156761059428921712e+00 4.239699055223556279e+00 8.975280040008083660e+00 5.816911123700728048e+00 1.854838889542570035e+00 1.648542935197646742e+01 4.776723926914632656e+00 4.104300430171571534e+00 1.241125967152950693e+01 1.412134232457953331e+00 1.872958578183966605e+00 6.039879954943432772e+00 -2.117274651548635145e+00 4.532735049423276763e+00 6.504300646813566011e+00 4.753957623223101336e+00 4.217088963431451454e+00 1.933441968353857021e+01 4.814682453059876188e+00 1.372802856669966265e-01 5.665009353316595941e+00 -1.218100301393846285e+00 6.126160766036337968e+00 2.719670649751784186e+00 8.246553353298383682e-01 2.277222752756321356e+00 1.317047006707205448e+01 1.455719149975219562e+00 5.970068977641614261e+00 1.987104027228561165e+01 2.223983385599752172e+00 4.088284895504020189e-01 9.868919728542135061e+00 2.290945450432180674e+00 4.446359449602237390e+00 1.601162003799043987e+01 -1.105059532698402736e+00 6.224936676532760060e+00 1.567799064210875315e+01 2.851159529778667601e+00 4.109962425030759370e+00 3.178719934940412273e+00 1.502955311572927721e+00 2.129902701634168949e+00 1.895971996281554439e+01 -1.129085721786573737e+00 2.290833037658280613e+00 2.442740334958062753e+00 -1.067755100208994001e+00 2.167727482359070201e+00 9.388440316868551960e+00
-1.136778989633755010e+00 6.331842279761187520e+00 3.440065487607008032e-02 -1.206698490529897416e+00 2.125125121030133180e+00 6.685210332481658746e+00 4.802486065494179890e+00 4.409997078497258194e+00 9.416439692133108608e+00 -1.116967185494575743e+00 1.960980508698385361e+00 1.939357030727538245e+01 -2.436924313237447404e+00 4.286670249374989972e+00 1.667325067105018732e+01 1.294345061593618951e+00 2.031720348618796468e+00 3.395429983556799591e+00 2.401313466043772049e+00 4.334160853187970730e+00 1.329891001406467765e+01 4.806015166039784070e+00 2.151458713913489279e-02 1.003602934536541902e+01 2.241782335358941669e+00 7.448735134232155330e-02 1.275471969972929820e+01 1.089690520200012225e+00 2.022379147427876944e+00 1.600670001076846205e+01 1.428830492043786204e+00 6.311576781952971338e+00 2.760300302905116965e+00 2.600909448264439483e+00 4.332220263182722242e+00 6.039199986653679630e+00 4.912532755104981774e+00 2.538226534335411566e-01 1.268561934914983347e+01 2.147310629074624444e+00 4.233605199800731356e+00 8.970140040817833338e+00 5.813459624584006669e+00 1.859814795711015600e+00 1.649176935284040368e+01 4.763459246578431561e+00 4.107423106356350218e+00 1.242283967358737229e+01 1.427722434282117536e+00 1.866041923277331982e+00 6.049309952268852264e+00 -2.105411335070134449e+00 4.534664774533450959e+00 6.509660645345783259e+00 4.759309187216992143e+00 4.217999818009204205e+00 1.932901968287957928e+01 4.823525583400357419e+00 1.391051742266932456e-01 5.652139352252879334e+00 -1.216589466946617737e+00 6.132498192938517612e+00 2.719440650045588548e+00 8.237978308695346197e-01 2.284534229303622155e+00 1.316805006776609765e+01 1.451143823836874347e+00 5.966956793449246454e+00 1.987082027266488993e+01 2.226922951485353686e+00 4.144234741908332520e-01 9.857149728582161430e+00 2.285540094809245915e+00 4.425678658008305177e+00 1.601716003709675107e+01 -1.100362683039094902e+00 6.217238636907127969e+00 1.568215064085995181e+01 2.848408353263794268e+00 4.109277127122612505e+00 3.169979935262046133e+00 1.500741929274199915e+00 2.133776490684530458e+00 1.895723996342348272e+01 -1.133472808212807159e+00 2.298390545970750765e+00 2.459790336153560464e+00 -1.071487384490169337e+00 2.172243867464775935e+00 9.399730317734658058e+00
-1.139068200592554314e+00 6.332306193888414647e+00 2.735065522539119678e-02 -1.215242564328977259e+00 2.128599730331315776e+00 6.682200333922695634e+00 -2.514937362667573062e+00 4.408394341631090896e+00 9.416580691309009765e+00 6.201234566829715078e+00 1.961601913576145551e+00 1.939307930791576950e+01 -2.429689077064143721e+00 4.295577895765362975e+00 1.667313067076507949e+01 1.300842164990682281e+00 2.030019240114956602e+00 3.405569982535294749e+00 2.398811861268514534e+00 4.333225128682768101e+00 1.328415001433248221e+01 4.803772794409565172e+00 1.427840899805298339e-02 1.003632934510057950e+01 2.245270057450026169e+00 7.315138760082079417e-02 1.275822969914754346e+01 1.088278438765815093e+00 2.009461542170593695e+00 1.600556000994200900e+01 1.421289733184927240e+00 6.316989678892257487e+00 2.758740304362087059e+00 2.604900433538285487e+00 4.338643450617650998e+00 6.041889986615498032e+00 4.915349075510539123e+00 2.516678365451184840e-01 1.268110934859511474e+01 2.138120352420131542e+00 4.227600899716486893e+00 8.965130041599127964e+00 5.810107920309365070e+00 1.864670530816678662e+00 1.649807935368121292e+01 4.750524429206060439e+00 4.110465218371254004e+00 1.243413967559382804e+01 1.443020978472979277e+00 1.859325763684570587e+00 6.058689949649649797e+00 -2.093787898349867227e+00 4.536664909875237406e+00 6.515000643916341261e+00 4.764540768720469721e+00 4.218920877415267334e+00 1.932370968223778007e+01 4.832208696914424451e+00 1.409203360028991603e-01 5.639449351210226169e+00 -1.215208802910854535e+00 6.138735842260914843e+00 2.719130650349326217e+00 8.228699676949856601e-01 2.291635825760005130e+00 1.316563006845319705e+01 1.446638634654757727e+00 5.963924489417393282e+00 1.987056027304091188e+01 2.229802312394106867e+00 4.198985614272274236e-01 9.845539728620936515e+00 2.280275166514419638e+00 4.405247626641241254e+00 1.602257003620360010e+01 -1.095625474179716896e+00 6.209750528676227788e+00 1.568616063962223173e+01 2.845737262336860862e+00 4.108641692236094656e+00 3.161379935576682509e+00 1.498488376240894038e+00 2.137550348160534686e+00 1.895486996402902591e+01 -1.137729997292177497e+00 2.305887832250768987e+00 2.476590337326581626e+00 -1.075159908063382019e+00 2.176620150295402567e+00 9.410810318581559031e+00
-1.141347326637726756e+00 6.332820090751095421e+00 2.033065557731211781e-02 6.098953979231250599e+00 2.132027985438813555e+00 6.679249335331404858e+00 -2.509920002313571263e+00 4.406845763412206907e+00 9.416690690501738459e+00 6.196955547243795159e+00 1.962179228477252790e+00 1.939258930854558827e+01 -2.422624046116422569e+00 4.304365832695730809e+00 1.667301067049380237e+01 1.307239319637223174e+00 2.028348302602777764e+00 3.415699981529824569e+00 2.396190307609074921e+00 4.332319609428828322e+00 1.326962001461906127e+01 4.801560508188064347e+00 7.092179919601337458e-03 1.003656934483555219e+01 2.248707830882529457e+00 7.184550946989025355e-02 1.276171969857497679e+01 1.086836442671872405e+00 1.996593988206920356e+00 1.600446000912359423e+01 1.413858956533647238e+00 6.322392387951927262e+00 2.757160305803256328e+00 2.608931264549212869e+00 4.344976570037794694e+00 6.044549986564776489e+00 4.918175447156027502e+00 2.495430029387359638e-01 1.267658934804136983e+01 2.129140160575281548e+00 4.221646240792022553e+00 8.960220042355658165e+00 5.806826044851205459e+00 1.869426146914318521e+00 1.650439935450456730e+01 4.737879508480332902e+00 4.113446835212093866e+00 1.244524967755592115e+01 1.458169779118187126e+00 1.852759860377356516e+00 6.068119947062755593e+00 -2.082314273776264102e+00 4.538775301262975681e+00 6.520360642516088490e+00 4.769692367083048445e+00 4.219852073946117166e+00 1.931845968160770255e+01 4.840801810559009155e+00 1.427356520150269426e-01 5.626839350179856147e+00 -1.213938293084175557e+00 6.144883679637804796e+00 2.718700650661053153e+00 8.218617796837369704e-01 2.298547559304976673e+00 1.316319006913628975e+01 1.442193564517062043e+00 5.960962082856394062e+00 1.987024027341425736e+01 2.232621519529923937e+00 4.252837515351295949e-01 9.833979728660828812e+00 2.275140340192804533e+00 4.384876373188149934e+00 1.602786003529740455e+01 -1.090757992574095336e+00 6.202422197925122838e+00 1.569006063837936260e+01 2.843126273535984350e+00 4.108066154944454595e+00 3.152839935887844280e+00 1.496174737662530063e+00 2.141274308385285430e+00 1.895257996463883998e+01 -1.141867220940998351e+00 2.313364913362045971e+00 2.493290338481640944e+00 -1.078822602780871165e+00 2.180896416100247759e+00 9.421740319419241061e+00
-1.143676350655520757e+00 6.333394072893320015e+00 1.318065594082151563e-02 6.090639819264918486e+00 2.135452202291288515e+00 6.676299336736922996e+00 -2.504912608167912502e+00 4.405317202027893231e+00 9.416780689697437978e+00 6.192626459182013043e+00 1.962716629467561757e+00 1.939210930917909081e+01 -2.415598964228608647e+00 4.313183837729293479e+00 1.667290067023037281e+01 1.313656474099625271e+00 2.026677331008641669e+00 3.426059980521623860e+00 2.393348753865851108e+00 4.331414466432588206e+00 1.325504001493572481e+01 1.159697373167874801e+00 6.373756314680981028e+00 1.003673034456599567e+01 2.252165638473875742e+00 7.055959732657264560e-02 1.276527969800124218e+01 1.085323967911251630e+00 1.983446554398279327e+00 1.600337000829272327e+01 1.406378384474284537e+00 6.327915182432303887e+00 2.755520307260725943e+00 2.613092197529887084e+00 4.351369467405851843e+00 6.047249986501015862e+00 4.921051801601120879e+00 2.474080843445422839e-01 1.267197934747998644e+01 2.120179831570086382e+00 4.215611547996498842e+00 8.955280043103174492e+00 5.803554203411284362e+00 1.874201746412066383e+00 1.651086935532811850e+01 4.725294621475868873e+00 4.116448349901524750e+00 1.245637967951138769e+01 1.473478613584645602e+00 1.846213683675063555e+00 6.077839944455565302e+00 -2.070760307866537087e+00 4.541085555416355390e+00 6.525880641120661352e+00 4.774874050467626141e+00 4.220833219570653050e+00 1.931314968097746032e+01 4.849495009479071861e+00 1.446007974918450678e-01 5.614029349139733505e+00 -1.212787681111320737e+00 6.151091721935129542e+00 2.718140650993936092e+00 8.207434548690321074e-01 2.305379481066192948e+00 1.316066006982813263e+01 1.437698510988826062e+00 5.958009761879708321e+00 1.986986027379524700e+01 2.235450777862715288e+00 4.306989247274485844e-01 9.822229728701705298e+00 2.270034812636628541e+00 4.364095069265146343e+00 1.603315003435486474e+01 -1.085620426478324019e+00 6.195143405509984547e+00 1.569390063710354788e+01 2.840495421111075114e+00 4.107570651990672950e+00 3.144189936208042546e+00 1.493751116144004687e+00 2.145008456747166559e+00 1.895031996526448381e+01 -1.145974188418425799e+00 2.320991942846821754e+00 2.510300339644415235e+00 -1.082555383047173470e+00 2.185122801518371904e+00 9.432760320262573828e+00
-1.146065236742657367e+00 6.334048157691149150e+00 5.850656318859820577e-03 6.082315728061820970e+00 2.138916435093315638e+00 6.673339338146944577e+00 -2.499875162009453700e+00 4.403818589771933745e+00 9.416830688891423051e+00 6.188207303231548551e+00 1.963214183245013844e+00 1.939162930982173449e+01 -2.408593710619260531e+00 4.322101877232178424e+00 1.667279066997758008e+01 1.320143628864545393e+00 2.025006239508452488e+00 3.436739979503858677e+00 2.390217218389778964e+00 4.330519818687982969e+00 1.324031001529282925e+01 1.157414591761654288e+00 6.366280205510795653e+00 1.003680034428794521e+01 2.255663497309087440e+00 6.930361636151650961e-02 1.276892969742439021e+01 1.083740878280208042e+00 1.969939240568376881e+00 1.600229000744310071e+01 1.398798087154654368e+00 6.333598147359641217e+00 2.753790308744477944e+00 2.617443301939045508e+00 4.357862039402187193e+00 6.049999986419160258e+00 4.924008155954442856e+00 2.452730281454118255e-01 1.266722934690765356e+01 2.111209264029624499e+00 4.209436872123773377e+00 8.950290043841055976e+00 5.800262396545065258e+00 1.878997379016571045e+00 1.651752935615596840e+01 4.712769803500289179e+00 4.119489761127672622e+00 1.246760968146180559e+01 1.489077413819560380e+00 1.839647011031732671e+00 6.087909941807160052e+00 -2.059025931167756784e+00 4.543635501910300967e+00 6.531580639719537729e+00 4.780115837060106898e+00 4.221874261708876475e+00 1.930775968034373591e+01 4.858348310704793782e+00 1.465256685622050026e-01 5.600919348082443960e+00 -1.211766914043108878e+00 6.157389986531446091e+00 2.717420651351703853e+00 8.194950280835116008e-01 2.312151624980002040e+00 1.315801007053303451e+01 1.433123458629301572e+00 5.955057577391722035e+00 1.986941027418719585e+01 2.238290121681371314e+00 4.361640803783044529e-01 9.810199728745146786e+00 2.264948362837585716e+00 4.342773731541424986e+00 1.603844003336712021e+01 -1.080132825613284719e+00 6.187884015028347839e+00 1.569768063578149508e+01 2.837834723267689707e+00 4.107165199691677593e+00 3.135349936539431948e+00 1.491167529430127425e+00 2.148762878290316092e+00 1.894808996591357797e+01 -1.150060779416789858e+00 2.328838937993739755e+00 2.527760340821778584e+00 -1.086368231154144048e+00 2.189309323913664951e+00 9.443950321113707247e+00
-1.148481243924152073e+00 6.334790718666645226e+00 1.995678065670786694e+01 6.074151550978028169e+00 2.142330395030894952e+00 6.670429339531150248e+00 -2.494907613591622386e+00 4.402380096852654745e+00 9.416860688099731647e+00 6.183778027475411498e+00 1.963641754770417469e+00 1.939116931046022430e+01 -2.401758628068962231e+00 4.330920207234024488e+00 1.667271066974018723e+01 1.326580851911175030e+00 2.023375233518279526e+00 3.447569978496081156e+00 2.386795717154494678e+00 4.329645666797539150e+00 1.322573001569116613e+01 1.155111707245342512e+00 6.358744130724835131e+00 1.003677034400793922e+01 2.259121424569020764e+00 6.808770390823108698e-02 1.277259969685614749e+01 1.082087498006871540e+00 1.956262046728680870e+00 1.600124000658967915e+01 1.391287942987665671e+00 6.339370992639618230e+00 2.751990310225770120e+00 2.621914354506567957e+00 4.364324406566659320e+00 6.052759986318553942e+00 4.926984578622201738e+00 2.431779381465640211e-01 1.266244934633571440e+01 2.102378644633838167e+00 4.203231957187869128e+00 8.945330044557451288e+00 5.797020503987690532e+00 1.883742926744814250e+00 1.652427935697303596e+01 4.700594967535483448e+00 4.122520574565285756e+00 1.247871968336359316e+01 1.504686419014077181e+00 1.833200321236125196e+00 6.098199939166832451e+00 -2.047321161692474689e+00 4.546415499152612227e+00 6.537380638340640537e+00 4.785297708825456908e+00 4.222965406756143736e+00 1.930237967972215429e+01 4.867211663173377723e+00 1.484805229353866884e-01 5.587759347026129753e+00 -1.210896215699130751e+00 6.163648507476793270e+00 2.716540651726865985e+00 8.181262252202703422e-01 2.318703974405056822e+00 1.315527007123704095e+01 1.428568508251768954e+00 5.952165358765285852e+00 1.986889027458116175e+01 2.241089362955392961e+00 4.415693046925944221e-01 9.798099728789326335e+00 2.259991553502166184e+00 4.321242172134538428e+00 1.604362003234509615e+01 -1.074344883913037396e+00 6.180824111395934572e+00 1.570131063443420061e+01 2.835164213082135287e+00 4.106869764582095073e+00 3.126469936880853506e+00 1.488493891387540957e+00 2.152487453837447884e+00 1.894592996657262063e+01 -1.154057268177181905e+00 2.336745779104655085e+00 2.545390341991577099e+00 -1.090221318695690611e+00 2.193355914787535443e+00 9.455120321959313401e+00
-1.150889822543710306e+00 6.335624837343945437e+00 1.994946065710288252e+01 6.066297168460785372e+00 2.145623824943994062e+00 6.667619340863526034e+00 -2.490109876677651268e+00 4.401051894481266658e+00 9.416850687339969994e+00 6.179428632063540761e+00 1.963999189324855843e+00 1.939072931108226072e+01 -2.395244023404302869e+00 4.339459084730335370e+00 1.667265066952454688e+01 1.332838194975123347e+00 2.021814535019367476e+00 3.458389977518422587e+00 2.383104284970518183e+00 4.328811976184900878e+00 1.321155001612957491e+01 1.152848976827601346e+00 6.351297987385032151e+00 1.003662034372957557e+01 2.262479505805272684e+00 6.696196212969675321e-02 1.277622969630864347e+01 1.080384237565537919e+00 1.942654938186825220e+00 1.600024000574861205e+01 1.383967764691799607e+00 6.345123513121640357e+00 2.750140311679549310e+00 2.626455150812709416e+00 4.370636654166258239e+00 6.055469986196592380e+00 4.929901155229534204e+00 2.411729503023613552e-01 1.265771934577903934e+01 2.093868161750853218e+00 4.197106495055322739e+00 8.940480045236416373e+00 5.793878337899529996e+00 1.888328303474969827e+00 1.653097935776383309e+01 4.689070028241484778e+00 4.125490276856107030e+00 1.248948968517181335e+01 1.520025800739287059e+00 1.826974092531884475e+00 6.108519936580725229e+00 -2.035876049747110894e+00 4.549395940617721124e+00 6.543160637013056835e+00 4.790319632345057421e+00 4.224086824972178356e+00 1.929711967912480830e+01 4.875945015863081267e+00 1.504355992355465299e-01 5.574769345987564684e+00 -1.210215790248983181e+00 6.169747353490708797e+00 2.715490652115455816e+00 8.166467902163806469e-01 2.324886512346642231e+00 1.315249007192698727e+01 1.424113763150291589e+00 5.949392968966266793e+00 1.986832027497092312e+01 2.243788365124162798e+00 4.468347000043971229e-01 9.786139728836156237e+00 2.255275068777251146e+00 4.299900202125818360e+00 1.604860003130522728e+01 -1.068306344041971112e+00 6.174113780016846853e+00 1.570471063308031034e+01 2.832543925263571793e+00 4.106704243657915754e+00 3.117719937225680304e+00 1.485740048481800635e+00 2.156092166211521111e+00 1.894386996723316230e+01 -1.157883859631451795e+00 2.344592329803091957e+00 2.562900343133435843e+00 -1.094034799335481978e+00 2.197172437704244530e+00 9.466060322781371994e+00
-1.024569999999999981e+00 6.437009999999999899e+00 5.335000000000000159e-02 -1.249360000000000026e+00 2.124400000000000066e+00 6.567190000000000083e+00 4.765279999999999738e+00 4.461339999999999861e+00 9.238540000000000418e+00 -1.369850000000000012e+00 1.932430000000000092e+00 1.902433999999999870e+01 4.728909999999999947e+00 4.278240000000000265e+00 1.635522999999999882e+01 1.266710000000000003e+00 2.057749999999999968e+00 3.302700000000000191e+00 2.309619999999999784e+00 4.362160000000000259e+00 1.308746999999999971e+01 4.701480000000000103e+00 9.839999999999999789e-03 9.844329999999999359e+00 2.058940000000000214e+00 4.852000000000000063e-02 1.249530000000000030e+01 8.987699999999999578e-01 2.045960000000000001e+00 1.570401000000000025e+01 1.533700000000000063e+00 6.387889999999999624e+00 2.710080000000000044e+00 2.598590000000000177e+00 4.365160000000000373e+00 5.916960000000000441e+00 4.758320000000000327e+00 2.257800000000000085e-01 1.245650000000000013e+01 2.131990000000000052e+00 4.290740000000000443e+00 8.810769999999999769e+00 5.657449999999999868e+00 1.825809999999999933e+00 1.615737999999999985e+01 4.731180000000000163e+00 4.126050000000000217e+00 1.215037000000000056e+01 1.336729999999999974e+00 1.898640000000000105e+00 5.906629999999999825e+00 -2.180769999999999875e+00 4.585180000000000256e+00 6.366670000000000051e+00 4.566519999999999690e+00 4.224779999999999980e+00 1.897595000000000098e+01 4.755810000000000315e+00 1.185800000000000048e-01 5.582099999999999618e+00 -1.172860000000000014e+00 6.203929999999999723e+00 2.671009999999999884e+00 6.794900000000000384e-01 2.253519999999999968e+00 1.291859999999999964e+01 1.284000000000000030e+00 6.014870000000000161e+00 1.949014999999999986e+01 2.103969999999999896e+00 3.730600000000000027e-01 9.702569999999999695e+00 2.152699999999999836e+00 4.508200000000000429e+00 1.569722999999999935e+01 -1.246369999999999978e+00 6.293599999999999639e+00 1.536719000000000079e+01 2.903480000000000061e+00 4.168309999999999960e+00 3.134609999999999896e+00 1.270990000000000064e+00 2.096760000000000179e+00 1.859524000000000044e+01 -1.131629999999999914e+00 2.305769999999999875e+00 2.356409999999999894e+00 -1.169689999999999896e+00 2.164950000000000152e+00 9.187969999999999970e+00
-1.020999999999999908e+00 6.436250000000000249e+00 4.737000000000000238e-02 -1.248780000000000001e+00 2.125210000000000043e+00 6.580140000000000100e+00 4.767710000000000115e+00 4.458510000000000417e+00 9.235659999999999314e+00 -1.367259999999999920e+00 1.932129999999999903e+00 1.902599999999999980e+01 4.720069999999999766e+00 4.287600000000000300e+00 1.634987999999999886e+01 1.267060000000000075e+00 2.052059999999999995e+00 3.296069999999999833e+00 2.298309999999999853e+00 4.362400000000000055e+00 1.309046999999999983e+01 4.707830000000000403e+00 9.650000000000000591e-03 9.842510000000000758e+00 2.060369999999999813e+00 5.023999999999999994e-02 1.250055000000000049e+01 9.031099999999999683e-01 2.038320000000000132e+00 1.570193000000000083e+01 1.531609999999999916e+00 6.390150000000000219e+00 2.707040000000000113e+00 2.595569999999999933e+00 4.366979999999999862e+00 5.921669999999999767e+00 4.767809999999999881e+00 2.215699999999999892e-01 1.246147999999999989e+01 2.129779999999999784e+00 4.293859999999999566e+00 8.814579999999999416e+00 5.664010000000000211e+00 1.827890000000000015e+00 1.615719999999999956e+01 4.716759999999999842e+00 4.128370000000000317e+00 1.215427999999999997e+01 1.338049999999999962e+00 1.899149999999999894e+00 5.918129999999999669e+00 -2.173059999999999992e+00 4.577969999999999651e+00 6.349269999999999747e+00 4.579080000000000261e+00 4.216499999999999915e+00 1.897448999999999941e+01 4.744460000000000122e+00 1.202600000000000058e-01 5.560299999999999798e+00 -1.181210000000000093e+00 6.208940000000000126e+00 2.678630000000000067e+00 6.900699999999999612e-01 2.251759999999999984e+00 1.292484999999999928e+01 1.276289999999999925e+00 6.009249999999999758e+00 1.949662999999999968e+01 2.112460000000000004e+00 3.783000000000000251e-01 9.711919999999999220e+00 2.157869999999999955e+00 4.508580000000000254e+00 1.570321000000000033e+01 -1.248539999999999983e+00 6.285840000000000316e+00 1.536411000000000016e+01 2.899189999999999934e+00 4.164170000000000371e+00 3.139549999999999841e+00 1.265980000000000105e+00 2.094399999999999817e+00 1.858133000000000123e+01 -1.136190000000000033e+00 2.321979999999999933e+00 2.350569999999999826e+00 -1.166230000000000100e+00 2.171479999999999855e+00 9.187110000000000554e+00
-1.017400000000000082e+00 6.435430000000000206e+00 4.120999999999999663e-02 -1.248170000000000002e+00 2.126020000000000021e+00 6.593210000000000015e+00 4.770179999999999865e+00 4.455680000000000085e+00 9.232720000000000482e+00 -1.364619999999999944e+00 1.931759999999999922e+00 1.902768999999999977e+01 4.711090000000000444e+00 4.297150000000000247e+00 1.634434999999999860e+01 1.267439999999999900e+00 2.046330000000000204e+00 3.289270000000000138e+00 2.286770000000000191e+00 4.362610000000000099e+00 1.309346999999999994e+01 4.714339999999999975e+00 9.499999999999999764e-03 9.840559999999999974e+00 2.061840000000000117e+00 5.188999999999999863e-02 1.250591999999999970e+01 9.075199999999999934e-01 2.030539999999999790e+00 1.569984000000000002e+01 1.529490000000000016e+00 6.392509999999999692e+00 2.703959999999999919e+00 2.592480000000000118e+00 4.368809999999999860e+00 5.926479999999999748e+00 4.777540000000000120e+00 2.172399999999999887e-01 1.246662000000000070e+01 2.127629999999999910e+00 4.297080000000000233e+00 8.818519999999999470e+00 5.670749999999999957e+00 1.830060000000000020e+00 1.615702999999999889e+01 4.702060000000000350e+00 4.130799999999999805e+00 1.215823999999999927e+01 1.339380000000000015e+00 1.899790000000000090e+00 5.929960000000000342e+00 -2.165249999999999897e+00 4.570579999999999643e+00 6.331620000000000026e+00 4.591920000000000002e+00 4.208169999999999966e+00 1.897306999999999988e+01 4.732949999999999768e+00 1.220900000000000041e-01 5.538129999999999775e+00 -1.189729999999999954e+00 6.214089999999999669e+00 2.686360000000000081e+00 7.008100000000000440e-01 2.250119999999999898e+00 1.293116999999999983e+01 1.268450000000000077e+00 6.003619999999999735e+00 1.950312999999999874e+01 2.121049999999999880e+00 3.835500000000000020e-01 9.721330000000000027e+00 2.163089999999999957e+00 4.508869999999999933e+00 1.570941999999999972e+01 -1.250790000000000068e+00 6.277829999999999799e+00 1.536101999999999990e+01 2.894769999999999843e+00 4.159810000000000230e+00 3.144569999999999865e+00 1.260829999999999895e+00 2.091959999999999820e+00 1.856728000000000023e+01 -1.140830000000000011e+00 2.338420000000000165e+00 2.344580000000000108e+00 -1.162789999999999990e+00 2.178020000000000067e+00 9.186400000000000787e+00