-1.095829416800000047e+02
-1.095733899300000047e+02
-1.095397558599999996e+02
-1.094825665399999934e+02
-1.094040777600000069e+02
-1.093054790200000070e+02
-1.091855651000000051e+02
-1.090438265500000057e+02
-1.088836588399999954e+02
-1.087101622699999979e+02
-1.094421939900000069e+02
-1.094344678899999934e+02
-1.094015760300000011e+02
-1.093436435699999976e+02
-1.092626379299999968e+02
-1.091593223499999965e+02
-1.090318825800000013e+02
-1.088793480300000027e+02
-1.087050492999999989e+02
-1.085137971999999991e+02
-1.090188167700000008e+02
-1.090120447999999982e+02
-1.089893415399999981e+02
-1.089508035599999971e+02
-1.088977630800000043e+02
-1.088306625999999966e+02
-1.087481607099999934e+02
-1.086494437900000065e+02
-1.085365421199999929e+02
-1.084124183899999991e+02
-1.094549889900000039e+02
-1.094650720799999988e+02
-1.094529952400000070e+02
-1.094185413200000028e+02
-1.093632265300000057e+02
-1.092878427600000038e+02
-1.091911449899999980e+02
-1.090724195699999939e+02
-1.089344357300000041e+02
-1.087813222799999977e+02
-1.086256535499999956e+02
-1.085975202999999993e+02
-1.085447441900000030e+02
-1.084668500300000034e+02
-1.083655452800000063e+02
-1.082419599299999931e+02
-1.080943391800000057e+02
-1.079206550800000031e+02
-1.077227653199999935e+02
-1.075066291100000058e+02
