9.128051744209401876e-04 2.230447965842058660e-03 -6.247099994865795008e-02 6.618487443196363618e-02 -1.885215406488355630e-02 5.056989473896243009e-03 -2.280980654329474097e-02 1.125200722574701793e-02 -4.136399599711329533e-02 2.279880893654573706e-02 -1.124398190840846141e-02 -4.135700400075258132e-02 -6.619986790042020619e-02 1.885517890069938682e-02 5.062010528390144606e-03 -1.407118117623929257e-02 1.102106621913477233e-02 1.230600279127610185e-02 1.406618283543033254e-02 -1.102205961353168624e-02 1.230599720932841305e-02 -8.848974863895686443e-04 -2.274485900562139753e-03 -6.248300005862975071e-02 1.568139836837059578e-03 -3.444073362433772850e-02 3.788299706820379142e-02 -4.596639197887750043e-03 -1.383016725163749988e-02 4.866999953643080801e-02 -1.561134627830673997e-03 3.443771568547719653e-02 3.788300293060235108e-02 4.597654199157542518e-03 1.383115785988490477e-02 4.867200046350995263e-02 1.211466848060951673e-01 -2.719210083849600210e-02 -1.039720186900383453e-01 9.517542752066279754e-02 8.350325065576699041e-03 1.151839876612989061e-01 7.127909028105364198e-02 -5.384392273785687522e-02 1.359549860170825020e-01 -8.175607356009174931e-02 -1.005963999068244380e-01 -7.532599677284809725e-02 5.769417093625140401e-03 1.037862830462980973e-01 9.172500740165401290e-02 -7.127905485711286127e-02 5.384290128356455235e-02 1.359540139828354366e-01 2.265255347752096957e-03 -1.623189346367790234e-02 -2.697600159017809682e-02 -5.867094595477514996e-02 5.349292816273297502e-03 -2.560099156551595354e-02 -1.211547097744238854e-01 2.719413091833735446e-02 -1.039769813087081246e-01 -1.273845631410333579e-01 3.254277925436591806e-02 -4.588980035878188757e-03 -3.070157925469109775e-02 6.716494681961202723e-03 -1.063519952772636473e-01 3.067856049561300605e-02 -6.710438593931693750e-03 -1.063540047191175869e-01 -5.770395457439766833e-03 -1.037882958100129344e-01 9.172799259832306595e-02 5.867093896225013955e-02 -5.349288775954936376e-03 -2.560200843448340660e-02 1.273845653061309591e-01 -3.254077853307123236e-02 -4.589019963964349053e-03 -9.518135332200407250e-02 -8.325333023682289502e-03 1.151740123414852768e-01 8.176005298104188634e-02 1.005964049571556329e-01 -7.532200322769683210e-02 -2.258240506287477120e-03 1.624488573752861167e-02 -2.697999840975536315e-02
4.139039999448314647e-03 3.336997612516823253e-02 -2.555999793209437487e-02 2.044084994105632436e-01 -5.371146649816395391e-02 5.008296784674784452e-02 -9.622634118519006463e-02 4.259554048551648930e-02 -4.984598349775156562e-02 4.687675675438809225e-02 -3.820917798584798353e-02 -2.117700941671699089e-02 -1.712300482810000246e-01 -6.716342441611573844e-02 4.075018084268544095e-03 -8.683607126739564808e-02 3.104046951665033124e-02 -1.256985691916626385e-03 -6.542087272966519429e-02 8.305817341100982590e-03 1.913840095895819882e-01 1.549628074661559517e-02 2.941156376755479224e-02 -9.833699979544387182e-02 -3.815784900455088807e-02 6.555229376000310838e-03 1.642500572827653924e-02 -1.920369246108043909e-02 1.598784229080349797e-02 6.188600388411451964e-02 7.147359935804996345e-02 2.076486290924042452e-02 1.993499187773625086e-02 3.125083616864039043e-02 -4.692848546637207185e-02 2.028699202921177558e-02 9.589492475471646238e-02 -4.214907686745291218e-03 -8.059301342845720528e-02 1.819824505103826984e-01 2.817997818804902216e-02 1.331809773712342160e-01 9.063232522257573531e-02 -8.648404788830574286e-02 1.112779807985501829e-01 6.316637229046491442e-02 -1.004531013832867664e-01 -1.541470165528399106e-01 -8.446209816224352351e-02 1.538755829621745175e-01 1.040710236765377966e-01 -1.318165348708963402e-01 9.807944078114418096e-02 1.165990257407316238e-01 -3.584501296618713972e-02 -3.487737659642535341e-03 5.787004619955626004e-03 -9.162641187733552850e-02 5.686619010783911486e-03 1.568901296165755785e-02 -1.520161428957242378e-01 -1.398417705120351233e-02 -1.350359803434156292e-01 -1.336872114245736265e-01 -7.138459876189297282e-02 -1.761998737584382149e-02 1.380900175334116538e-04 3.925982985549237442e-02 -1.084969969209509805e-01 -3.522529118360697049e-03 -4.827704580227833164e-02 -4.900500332838496342e-02 5.737792544567532627e-02 -5.625815541073644899e-02 4.181987724987868207e-03 1.020777965014052352e-01 7.410163833516407450e-02 -7.626700809302959516e-02 1.226084061955363680e-01 1.124644628861725879e-02 3.048998414344625263e-02 -1.028179717827562567e-01 -3.676432279735847297e-02 1.289340111403192435e-01 1.216983138377415175e-01 7.146410002100654635e-02 -9.914001098062349970e-02 3.896141970078386210e-03 -4.437671676457068115e-02 -9.556200403374796870e-02
7.508134153937081473e-03 6.559726176119980157e-02 1.047500415079243366e-02 3.348752898172548398e-01 -9.080752379656135964e-02 9.436394710241029216e-02 -1.653914447364483731e-01 7.594280992393988294e-02 -5.826197142087351927e-02 7.056972723950878656e-02 -6.574571675314631880e-02 -2.528014825191205166e-03 -2.801487241116968896e-01 -1.599043914004717182e-01 5.917025640732417879e-03 -1.571966568847809331e-01 5.240576493768762251e-02 -1.112097439724979431e-02 -1.554014333895855915e-01 2.793263110710716285e-02 3.651830234264682451e-01 3.092534421514192902e-02 6.044623989071925413e-02 -1.342969994536311606e-01 -7.714335305993993974e-02 4.607892445454251501e-02 -3.782985828947511321e-03 -3.525836041054934700e-02 4.369232309055107871e-02 7.486100826271779862e-02 1.456539088816004857e-01 8.598054461678416791e-03 -4.420192127375066312e-04 5.787259766604632011e-02 -1.061790730094875901e-01 -6.456016281719960045e-03 6.953505344375435215e-02 1.986818105589783709e-02 -5.638700792828332808e-02 2.645117599513542306e-01 4.818094329826618644e-02 1.503609676788707772e-01 1.098096901802842612e-01 -1.190478722283283136e-01 8.549797561005520463e-02 2.203144241817569238e-01 -1.011357005142267951e-01 -2.341750380675905741e-01 -1.685979477755147615e-01 2.043494647914789186e-01 1.120750391493169212e-01 -1.915275822262514638e-01 1.443235706268182761e-01 9.722003754418261090e-02 -7.508894964379785042e-02 9.451356087366837022e-03 3.924901100029125345e-02 -1.237523128516864329e-01 5.768526717240452309e-03 5.924301735538799879e-02 -1.844630760192032259e-01 -5.662377717097511615e-02 -1.659639792769063704e-01 -1.418499901807857011e-01 -1.759717983549015929e-01 -3.039899451384633217e-02 3.086789965278100359e-02 7.188535289881048396e-02 -1.102929985431501531e-01 -3.704986089332752697e-02 -8.998580473357589704e-02 7.046997959119203486e-03 1.211635533266599007e-01 -5.039099382569668661e-03 -7.762701694429735566e-02 1.498030362185233944e-01 1.590381925281371123e-01 -1.298670079084559281e-01 1.174785467682061685e-01 5.462427510595938007e-02 6.526898826685503807e-02 -1.101545803279424945e-01 -6.578282621879745495e-02 1.427280098524545404e-01 1.606266790103853814e-01 4.122351957094683161e-02 -1.221500186830865170e-01 1.129318313977203947e-02 -1.063694455437463465e-01 -1.607490099356370938e-01
1.106927234057888607e-02 9.843522006161556370e-02 4.622000625564013504e-02 4.572888236302901643e-01 -1.298018187394530121e-01 1.366399273080733945e-01 -2.306043629222215008e-01 1.111503268516339932e-01 -6.688495973693399377e-02 9.453047662841364274e-02 -9.341171329135256052e-02 1.458597971954888640e-02 -3.915783384379725174e-01 -2.590430761654101133e-01 1.098703303527360370e-02 -2.259750193202091084e-01 7.565535862915445664e-02 -1.994396316997053623e-02 -2.539075604361951122e-01 4.665101652333042415e-02 5.301480383559669107e-01 4.533982801970624921e-02 9.114264968572619030e-02 -1.702879989999543375e-01 -1.155640079649347396e-01 8.375865130990721441e-02 -2.313797760881196319e-02 -5.199816554596874835e-02 7.014697308691632271e-02 8.842001263626614316e-02 2.214448515484396252e-01 -2.614505416546209892e-03 -2.268003044787147288e-02 8.337713009822664278e-02 -1.649777503608008400e-01 -3.213502440442004421e-02 4.271382035103635927e-02 4.491005972532637752e-02 -3.155500228944706914e-02 3.412187547354795791e-01 6.800285996147779899e-02 1.666909587674997861e-01 1.286469990365690930e-01 -1.510591144713519796e-01 5.900597051160138412e-02 3.874507762220912865e-01 -1.028213735993319528e-01 -3.137460610255459748e-01 -2.453609332697333223e-01 2.535677430689217138e-01 1.162260535161490638e-01 -2.493446495665218587e-01 1.917244648673049057e-01 7.820104918026338225e-02 -1.147492617371989876e-01 2.217116119818873451e-02 7.278601742018675491e-02 -1.539924027403321571e-01 5.738210867870876392e-03 1.038810214827289441e-01 -2.180270141723129884e-01 -9.985046895494206765e-02 -1.962569781041789418e-01 -1.521015421144002178e-01 -2.792544258380991740e-01 -4.283400126365598942e-02 6.127750305556364796e-02 1.038054222071160965e-01 -1.119030001772863825e-01 -6.930409595373132614e-02 -1.304687376893481077e-01 6.033399916949051117e-02 1.848397579253852618e-01 4.944214786369759834e-02 -1.521400213412277824e-01 2.014583700995033200e-01 2.481220354614238066e-01 -1.857560079333411274e-01 1.121701081657393850e-01 9.649340705439371502e-02 9.870199229560365495e-02 -1.168810496428128870e-01 -9.472037237378631847e-02 1.562720084876545179e-01 1.974116030376406872e-01 1.131160313470557822e-02 -1.435850260668984357e-01 2.000733591039350126e-02 -1.688834267119739274e-01 -2.213400160585293208e-01
1.478845120043310521e-02 1.312969083380700619e-01 8.104500834077837945e-02 5.690630820720379290e-01 -1.695329294269109499e-01 1.758309089085396681e-01 -2.911194778385495785e-01 1.474088156198737620e-01 -7.528394861161513685e-02 1.180768314781064920e-01 -1.207230008952778766e-01 3.015597434886802680e-02 -5.024310739931568959e-01 -3.623487532210522555e-01 1.868004002222694443e-02 -2.913650703619877214e-01 9.966916187660861126e-02 -2.717695234510952851e-02 -3.578153832744038199e-01 6.379763327082499380e-02 6.851060538991264881e-01 5.836852940865412676e-02 1.213824273951495669e-01 -2.055669983930599742e-01 -1.527156471499871992e-01 1.191062056450872264e-01 -4.167396974600344473e-02 -6.932129441255280300e-02 9.524261815261338138e-02 1.018830169822412396e-01 2.964481573715961882e-01 -1.244371692829059246e-02 -4.618204146628820256e-02 1.071244649698572665e-01 -2.215504211190295891e-01 -5.613103211150216598e-02 1.554262360181965161e-02 7.055853743997130001e-02 -6.544996554951460627e-03 4.116643260872402399e-01 8.758247863336621197e-02 1.819629506920965589e-01 1.468677000033901670e-01 -1.822553015370919072e-01 3.173296556166647214e-02 5.611341019339831648e-01 -1.051132381220426654e-01 -3.915390849254273831e-01 -3.145036208128692001e-01 3.011989944289523158e-01 1.161290667170929575e-01 -3.044822318231844571e-01 2.388217787590289631e-01 5.953806042647027258e-02 -1.543794011674689548e-01 3.440691404981714024e-02 1.061810237977681010e-01 -1.822560781716283385e-01 5.363516236820600053e-03 1.499640253129885803e-01 -2.518712987293300065e-01 -1.432796819391528031e-01 -2.252879769091458984e-01 -1.638581469041135719e-01 -3.796414766464258905e-01 -5.441500757944670030e-02 9.083511306786683226e-02 1.345599460445221218e-01 -1.131600017870411229e-01 -9.969792919086978289e-02 -1.695478482627829908e-01 1.109880002365689622e-01 2.469230798989756059e-01 1.075031223367878680e-01 -2.188560252381591686e-01 2.556784177124526436e-01 3.393764979165314610e-01 -2.427720081371966265e-01 1.067178597257721490e-01 1.361337816307884030e-01 1.310779961681259598e-01 -1.228165493291392962e-01 -1.230912696195210071e-01 1.693690070595487707e-01 2.317563922255872211e-01 -1.867714266714123883e-02 -1.646770331235386520e-01 2.984568928308086941e-02 -2.306963287702890331e-01 -2.771170222796291993e-01
1.877230653007568029e-02 1.639691439917044247e-01 1.152390103748230643e-01 6.707209857655652696e-01 -2.094627488410115701e-01 2.125238918748561245e-01 -3.476026996535271363e-01 1.847714144713288598e-01 -8.347393794978297255e-02 1.414548375947621284e-01 -1.476530000624309003e-01 4.417996903126171493e-02 -6.124610661098051079e-01 -4.699008429989217639e-01 2.906404656174877560e-02 -3.537881017604819767e-01 1.248618953261121794e-01 -3.267894183240743072e-02 -4.668504765922000255e-01 7.962101253703481041e-02 8.309280700380827778e-01 6.983453577653149502e-02 1.512168754997892384e-01 -2.402749976047395264e-01 -1.885153544935944669e-01 1.520724456371938260e-01 -5.930596225572223879e-02 -8.727966683364371536e-02 1.201963488230022581e-01 1.149570214037720917e-01 3.705230128902948228e-01 -2.078033920362076445e-02 -7.077205224013850826e-02 1.291292690164544399e-01 -2.760921106411313719e-01 -7.822103942035925350e-02 -1.164559886181862694e-02 9.677704509388139476e-02 1.842700922685103909e-02 4.764620389456442062e-01 1.066647502673245540e-01 1.961459433487440784e-01 1.643728326489953540e-01 -2.126132642737434408e-01 4.310960775592605730e-03 7.404479651822594155e-01 -1.082657280122630988e-01 -4.669771096621612716e-01 -3.760431641470464714e-01 3.471532479563718687e-01 1.125600787473929193e-01 -3.567442267316525695e-01 2.856751771447482713e-01 4.143907126073185371e-02 -1.937643375292710801e-01 4.617624713236017503e-02 1.391230301050616902e-01 -2.084661120492147246e-01 4.777311062430931315e-03 1.966140288461050434e-01 -2.860218767808508367e-01 -1.862953708829439836e-01 -2.533759756396531948e-01 -1.773625426655243420e-01 -4.769795356588489854e-01 -6.540301341596445328e-02 1.193160478994043788e-01 1.643353087430949877e-01 -1.142130033270234712e-01 -1.282752870726231453e-01 -2.071800612929059759e-01 1.586250011697520612e-01 3.072265351692757274e-01 1.668131403145476366e-01 -2.783840287934651880e-01 3.126284694783424412e-01 4.323862967733371754e-01 -3.005860085753638833e-01 1.009307742743952296e-01 1.735297253894074188e-01 1.617609999092733120e-01 -1.283439779657894741e-01 -1.508358634184081559e-01 1.820170056251345647e-01 2.638831642532206145e-01 -4.808909659035798950e-02 -1.842980398317654311e-01 4.055958205332695771e-02 -2.916097263852138188e-01 -3.282950285493220766e-01
2.315126206058227068e-02 1.972847052400437673e-01 1.497440124056761135e-01 7.643059865659079799e-01 -2.499137702256253035e-01 2.472888759025110017e-01 -4.014366931827458851e-01 2.240204878650957077e-01 -9.172392750087858537e-02 1.651115218423048758e-01 -1.747714757366538862e-01 5.717296366072231045e-02 -7.238523113057261371e-01 -5.834506150997554874e-01 4.205405281390642291e-02 -4.142292626467983796e-01 1.517322435816903514e-01 -3.687693145797659583e-02 -5.828725946121822155e-01 9.485133387567992735e-02 9.708570870844311917e-01 7.990856804164908622e-02 1.810677028876412076e-01 -2.753319966250309392e-01 -2.236845000850246346e-01 1.836116056936356045e-01 -7.636895496415736784e-02 -1.057654299140789178e-01 1.449219805879989054e-01 1.280470258793297011e-01 4.453857796738315278e-01 -2.799930640015536529e-02 -9.707906303340295417e-02 1.496946016665275658e-01 -3.297383384956477093e-01 -9.950104646198079661e-02 -3.959679468549715670e-02 1.241818585376350537e-01 4.398701520646039476e-02 5.372637968444062828e-01 1.257768521167814957e-01 2.096179365534490135e-01 1.815608818753447762e-01 -2.430196850025163890e-01 -2.423104397100595692e-02 9.283539289857912769e-01 -1.119519047018590618e-01 -5.409871356143972632e-01 -4.325546896465891078e-01 3.925289067794116016e-01 1.052430900453940055e-01 -4.072490139860381331e-01 3.326485721593260281e-01 2.345808186449589716e-02 -2.338897530397160973e-01 5.766584540043765555e-02 1.726060364914084877e-01 -2.329656933393874085e-01 3.869181620031008923e-03 2.457250321202333609e-01 -3.211816155575326626e-01 -2.299893359839141893e-01 -2.809829742858657720e-01 -1.926844280840189494e-01 -5.734324869058223806e-01 -7.583901893443947828e-02 1.475343079838730143e-01 1.937161198318798072e-01 -1.149670048622667973e-01 -1.555737530300353444e-01 -2.442914594200339407e-01 2.050340019693793758e-01 3.672793977923750064e-01 2.298715916945628934e-01 -3.324000320187687207e-01 3.729698830123934772e-01 5.285303037289941219e-01 -3.603100092293564094e-01 9.477200405153064777e-02 2.093553022010685993e-01 1.919560035772673867e-01 -1.333962756984487796e-01 -1.785042692151678489e-01 1.944340041318450008e-01 2.943215644690965194e-01 -7.771716498293324005e-02 -2.036360463264767773e-01 5.236966347014490597e-02 -3.529989985724041879e-01 -3.765740350062701247e-01
2.801354678648126928e-02 2.313774414495649856e-01 1.847890144318508066e-01 8.505602662481178688e-01 -2.907802622242496304e-01 2.803968608984905853e-01 -4.529014801661607748e-01 2.651435145105073832e-01 -9.995291722764793052e-02 1.891317815107120826e-01 -2.021385731696702936e-01 6.925095822090925057e-02 -8.377124969697798962e-01 -7.033991765927017914e-01 5.747505889831964337e-02 -4.727790741799201557e-01 1.805603618416285749e-01 -3.919292118734767766e-02 -7.056078369905097736e-01 1.094301292787403929e-01 1.103829104996154831e+00 8.844134441801741742e-02 2.107701644711573175e-01 -3.109359954465467091e-01 -2.581582155762173758e-01 2.136465748831787859e-01 -9.282394788625158988e-02 -1.249196174159577927e-01 1.682297528012000054e-01 1.411290303342933039e-01 5.214592315105835985e-01 -3.423334147500272512e-02 -1.248530739142912349e-01 1.690143241370467286e-01 -3.825704362200239017e-01 -1.196930532692598720e-01 -6.833835358519087244e-02 1.531300251135408741e-01 7.020502141579174071e-02 5.945235513147475448e-01 1.448900080694291159e-01 2.225209302419468849e-01 1.984926509501516445e-01 -2.735896678598502274e-01 -5.400004869551598696e-02 1.124775557612468280e+00 -1.164266381904620618e-01 -6.132441627918104876e-01 -4.844301299390942894e-01 4.373656409624330776e-01 9.442310066775143340e-02 -4.561389197741564927e-01 3.795512069153453294e-01 5.455092242147893677e-03 -2.749137687831574306e-01 6.880497906643669170e-02 2.068180429728216363e-01 -2.557570920628565170e-01 2.481131601052346484e-03 2.975600351232164376e-01 -3.573854535576144742e-01 -2.743255173728628704e-01 -3.082579728401672603e-01 -2.099693432302354723e-01 -6.693160820295277480e-01 -8.577302413991244601e-02 1.755151394611648985e-01 2.228463363337393477e-01 -1.154730063848593141e-01 -1.815522468297273984e-01 -2.808351127641012801e-01 2.503950026335434731e-01 4.267880955043478752e-01 2.969289785687553307e-01 -3.813870348542111599e-01 4.368825419661162557e-01 6.277402111180515609e-01 -4.219360101291292353e-01 8.809448780647914645e-02 2.435747633453197725e-01 2.217430071893712884e-01 -1.380546116631746756e-01 -2.061953483854821190e-01 2.066850025829636561e-01 3.231715721517017803e-01 -1.075735188059628172e-01 -2.230110526222872092e-01 6.541069048374026362e-02 -4.150063758604712882e-01 -4.222830416801006126e-01
3.344523745971606649e-02 2.657072047550045335e-01 2.198170163989706105e-01 9.284263954221004811e-01 -3.311424158315641186e-01 3.111858470797813636e-01 -5.010097439754981341e-01 3.071548052777233750e-01 -1.079439073427010815e-01 2.130285864796866435e-01 -2.291864590217246311e-01 8.025595282313946477e-02 -9.515087127821835189e-01 -8.262908519108425054e-01 7.436506474176125814e-02 -5.284533753265007183e-01 2.102695662780213193e-01 -3.997691123988011269e-02 -8.303666143183953130e-01 1.225283819681078634e-01 1.226741123067406791e+00 9.511253222335898372e-02 2.395448065959210338e-01 -3.462749940870453180e-01 -2.913022984232011559e-01 2.417102684399583812e-01 -1.084619411454705584e-01 -1.449700632725575422e-01 1.902170550142931738e-01 1.540250348074624631e-01 5.974866883219129843e-01 -3.987929695404080627e-02 -1.535980847425009177e-01 1.866947600617294423e-01 -4.338137297609824250e-01 -1.387000597273072844e-01 -9.730213626089700973e-02 1.831175730349922370e-01 9.645502773749080327e-02 6.472977857644457433e-01 1.637028305492310987e-01 2.345989245193068617e-01 2.147908225509190250e-01 -3.039235673270093696e-01 -8.447105331487481106e-02 1.324105457810556885e+00 -1.213303434652407975e-01 -6.816191904002570912e-01 -5.307421734600231700e-01 4.806748639141633084e-01 8.047311040982088604e-02 -5.022733951479412262e-01 4.249481296994750412e-01 -1.217389787529874617e-02 -3.160158937083912822e-01 7.929524526293159348e-02 2.411110494137053417e-01 -2.763193637909832634e-01 5.802705391878070591e-04 3.512880377813163979e-01 -3.939066106687650337e-01 -3.182631559047219283e-01 -3.346369713196863382e-01 -2.288228426546607408e-01 -7.626149923586934554e-01 -9.498302892722659818e-02 2.026495535088747857e-01 2.511479983581274555e-01 -1.157760078572399876e-01 -2.056276275926152697e-01 -3.161440170583482145e-01 2.938920031352393880e-01 4.844123468359840534e-01 3.660665890446644366e-01 -4.246260372681578965e-01 5.026816544274981258e-01 7.272138945495244533e-01 -4.839530112657080552e-01 8.107679793500281729e-02 2.753528024415014541e-01 2.506370106552864852e-01 -1.422658219349852426e-01 -2.332281908160718231e-01 2.184600010249589108e-01 3.500164408630027091e-01 -1.369244446186956010e-01 -2.420250586043888597e-01 7.934511314340626786e-02 -4.761982792494498518e-01 -4.646110484115966721e-01
3.938518036599122918e-02 2.995990987482036738e-01 2.541270182621329643e-01 9.970383733673394699e-01 -3.698297492231873429e-01 3.392688346570075231e-01 -5.450001743849185454e-01 3.490650575017175683e-01 -1.154398980280686438e-01 2.361550110684664805e-01 -2.552860266453262361e-01 9.016294760540081998e-02 -1.061898735469287036e+00 -9.479023473553507273e-01 9.165307022105123602e-02 -5.801751863760040706e-01 2.402620152827491251e-01 -3.945990180982462958e-02 -9.518390627023379791e-01 1.334770153660342629e-01 1.337668140520252624e+00 9.978120197857244522e-02 2.668478692718618261e-01 -3.805089925701870546e-01 -3.223107188735011563e-01 2.672343078452317777e-01 -1.229759348967383592e-01 -1.652673514044343539e-01 2.111267776199126922e-01 1.663500392293165153e-01 6.716624485007723910e-01 -4.476108630555984680e-02 -1.828710952575431647e-01 2.026248051317312004e-01 -4.823590276354293715e-01 -1.563050657334272564e-01 -1.259290084689431710e-01 2.136375459226240725e-01 1.221280340551977178e-01 6.950649112726470236e-01 1.818712104985594213e-01 2.457519194296065856e-01 2.302252208907099584e-01 -3.335389893357116886e-01 -1.152080577595847311e-01 1.519504050053743116e+00 -1.264113299716622119e-01 -7.440602174858337303e-01 -5.712801604540509448e-01 5.216722144613952228e-01 6.375411918094257835e-02 -5.448231042372997379e-01 4.672799207430315405e-01 -2.918588872415135357e-02 -3.563646999824288675e-01 8.880122246934536723e-02 2.749430556740490861e-01 -2.943317108243004854e-01 -1.951949942282333456e-03 4.058760400413692349e-01 -4.297174013373838974e-01 -3.608170066935387221e-01 -3.596209697870253463e-01 -2.486979240794198465e-01 -8.515731502741705761e-01 -1.032680332325169731e-01 2.284556723167875669e-01 2.781079287731643146e-01 -1.158290092540947280e-01 -2.273738705069831001e-01 -3.496188995394303167e-01 3.349880034635739912e-01 5.391842987215115235e-01 4.362010757698396302e-01 -4.620480392139180714e-01 5.680739100518821250e-01 8.238462691006984695e-01 -5.444400125709220051e-01 7.378080453129017002e-02 3.040283127825484932e-01 2.783560139143977374e-01 -1.458969598469498641e-01 -2.590490228983267085e-01 2.295269994833716576e-01 3.743430242918721618e-01 -1.652700646687348951e-01 -2.603780641632604254e-01 9.371626182088577117e-02 -5.352109262324278305e-01 -5.031070550307815692e-01
-5.522400000000000225e-02 -1.378989999999999938e-01 -2.758410000000000029e-01 5.119900000000000145e-02 9.489999999999999738e-04 -2.403889999999999916e-01 1.632899999999999976e-02 5.460199999999999776e-02 -2.004999999999999838e-02 -1.296999999999999976e-03 -1.048649999999999999e-01 -3.122999999999999908e-03 2.423399999999999860e-02 1.115410000000000013e-01 -2.567889999999999895e-01 1.515440000000000120e-01 1.426020000000000065e-01 -2.152459999999999929e-01 -7.822900000000000686e-02 -1.066539999999999988e-01 -1.953209999999999946e-01 1.434169999999999889e-01 1.328489999999999949e-01 -3.397350000000000092e-01 -1.197699999999999980e-02 -2.106909999999999894e-01 6.657399999999999429e-02 -1.462199999999999958e-02 3.621999999999999786e-03 8.134199999999999764e-02 8.779000000000000345e-03 1.586559999999999915e-01 6.993000000000000604e-02 -4.538299999999999973e-02 -6.514599999999999558e-02 7.252500000000000613e-02 1.522320000000000062e-01 -1.386330000000000062e-01 1.622309999999999863e-01 1.438879999999999881e-01 9.822500000000000675e-02 1.419249999999999956e-01 1.255020000000000024e-01 8.091399999999999981e-02 3.620799999999999713e-02 -6.605800000000000560e-02 1.078979999999999939e-01 -4.745400000000000312e-02 4.150000000000000043e-04 2.395470000000000099e-01 3.295540000000000136e-01 -6.227599999999999802e-02 -1.121629999999999988e-01 1.368699999999999917e-01 1.412440000000000084e-01 1.865269999999999984e-01 1.772380000000000067e-01 3.820799999999999891e-02 1.699330000000000007e-01 2.546000000000000086e-03 -4.031699999999999867e-02 1.302389999999999937e-01 3.282800000000000301e-02 -3.785000000000000170e-03 3.045439999999999814e-01 -6.701899999999999524e-02 -3.856500000000000206e-02 1.697869999999999935e-01 -1.909830000000000139e-01 -9.005499999999999616e-02 -1.644410000000000038e-01 -2.114649999999999863e-01 9.329999999999999752e-03 -1.836980000000000002e-01 2.532099999999999906e-01 -1.096769999999999967e-01 -2.285399999999999932e-01 1.149509999999999976e-01 -7.544800000000000118e-02 -3.091769999999999796e-01 -1.497000000000000067e-02 -1.509830000000000061e-01 -5.806399999999999756e-02 1.991979999999999862e-01 3.864999999999999946e-03 -7.333800000000000041e-02 -6.203100000000000280e-02 -1.651980000000000115e-01 -2.001380000000000103e-01 2.621240000000000236e-01
-1.213710000000000067e-01 -1.229740000000000000e-01 -2.070430000000000048e-01 2.968700000000000158e-02 -9.040099999999999525e-02 -3.939360000000000084e-01 1.350200000000000011e-02 1.252270000000000050e-01 -1.396400000000000072e-02 -8.153999999999999790e-03 -1.465150000000000063e-01 -7.637999999999999824e-03 9.023699999999999777e-02 -8.057999999999999191e-03 -2.092239999999999933e-01 9.512400000000000022e-02 2.044729999999999881e-01 -1.142299999999999982e-01 -2.117700000000000138e-02 -9.278400000000000536e-02 -1.715069999999999928e-01 1.302969999999999962e-01 1.688219999999999998e-01 -2.685790000000000122e-01 2.727299999999999863e-02 -2.770449999999999857e-01 4.465399999999999925e-02 -3.067900000000000141e-02 3.813600000000000323e-02 1.114959999999999979e-01 2.762600000000000125e-02 1.784229999999999983e-01 7.958899999999999308e-02 -6.046100000000000085e-02 -5.316499999999999698e-02 3.635399999999999743e-02 9.415300000000000058e-02 -9.415500000000000258e-02 1.152780000000000055e-01 1.801699999999999968e-01 7.335400000000000253e-02 1.058260000000000034e-01 8.318499999999999506e-02 1.161959999999999937e-01 3.479100000000000248e-02 -6.111000000000000112e-03 1.262979999999999936e-01 -8.197400000000000519e-02 -2.289100000000000162e-02 2.381369999999999876e-01 2.306390000000000107e-01 -1.251400000000000012e-01 -5.948599999999999721e-02 1.994809999999999917e-01 9.197099999999999720e-02 2.488209999999999866e-01 1.612719999999999987e-01 1.383570000000000078e-01 2.034910000000000052e-01 1.180569999999999953e-01 -9.440000000000000474e-03 7.694099999999999551e-02 -7.634799999999999920e-02 -8.238099999999999590e-02 3.087159999999999904e-01 -8.842899999999999372e-02 3.749399999999999955e-02 1.903279999999999972e-01 -2.174969999999999959e-01 -1.221430000000000016e-01 -2.093740000000000046e-01 -2.345029999999999892e-01 -6.974400000000000044e-02 -1.910850000000000048e-01 2.233489999999999920e-01 -6.043599999999999667e-02 -1.982889999999999930e-01 1.064999999999999974e-01 -7.572500000000000064e-02 -2.797009999999999774e-01 -3.219000000000000333e-02 -9.464899999999999702e-02 -9.253799999999999526e-02 2.436969999999999970e-01 3.204599999999999810e-02 -1.448639999999999928e-01 -4.502099999999999852e-02 -1.612250000000000072e-01 -2.369590000000000030e-01 3.493229999999999946e-01
-1.910640000000000116e-01 -1.069780000000000036e-01 -1.406060000000000088e-01 1.159400000000000014e-02 -1.764439999999999897e-01 -5.511740000000000528e-01 8.635000000000000314e-03 1.948239999999999972e-01 -5.977999999999999807e-03 -1.342600000000000043e-02 -1.881180000000000074e-01 -1.199700000000000072e-02 1.608509999999999940e-01 -1.286849999999999938e-01 -1.565499999999999947e-01 3.528900000000000092e-02 2.732310000000000016e-01 -1.758699999999999847e-02 3.806099999999999761e-02 -7.864599999999999369e-02 -1.451179999999999970e-01 1.152060000000000028e-01 2.061790000000000012e-01 -1.950880000000000114e-01 6.676999999999999602e-02 -3.433899999999999730e-01 2.152400000000000146e-02 -4.756200000000000011e-02 7.235300000000000065e-02 1.412259999999999904e-01 4.639100000000000168e-02 1.958239999999999981e-01 8.870100000000000207e-02 -7.516499999999999571e-02 -4.169199999999999989e-02 -1.675000000000000057e-03 3.436899999999999678e-02 -4.521499999999999825e-02 6.757199999999999318e-02 2.164210000000000023e-01 4.620799999999999907e-02 6.850000000000000533e-02 4.016200000000000325e-02 1.489240000000000008e-01 3.236200000000000188e-02 5.551999999999999991e-02 1.435970000000000024e-01 -1.167360000000000064e-01 -4.563099999999999795e-02 2.354459999999999886e-01 1.372599999999999931e-01 -1.876819999999999877e-01 -7.199999999999999803e-03 2.595729999999999982e-01 4.040200000000000041e-02 3.139469999999999761e-01 1.420790000000000108e-01 2.350500000000000089e-01 2.319229999999999903e-01 2.370809999999999862e-01 2.326999999999999902e-02 1.677000000000000018e-02 -1.840410000000000101e-01 -1.631279999999999952e-01 3.101740000000000053e-01 -1.102309999999999957e-01 1.166650000000000048e-01 2.084699999999999886e-01 -2.437139999999999862e-01 -1.527090000000000114e-01 -2.519339999999999913e-01 -2.567209999999999770e-01 -1.553789999999999893e-01 -1.975020000000000109e-01 1.912359999999999893e-01 -8.378000000000000030e-03 -1.658830000000000027e-01 9.720199999999999674e-02 -7.559899999999999953e-02 -2.496919999999999973e-01 -4.968100000000000294e-02 -3.630900000000000100e-02 -1.268219999999999903e-01 2.896259999999999946e-01 6.226500000000000090e-02 -2.157769999999999966e-01 -2.847399999999999931e-02 -1.559949999999999948e-01 -2.735360000000000014e-01 4.410319999999999796e-01