-1.491270000000000095e+00 6.109460000000000335e+00 1.509500000000000008e-01 5.943270000000000053e+00 2.101859999999999840e+00 6.824399999999999800e+00 -2.718580000000000219e+00 4.652230000000000310e+00 9.060499999999999332e+00 6.161120000000000374e+00 1.172870000000000079e+00 1.949981999999999971e+01 4.286469999999999558e+00 3.669430000000000192e+00 1.675362000000000151e+01 1.579010000000000025e+00 1.779519999999999991e+00 3.521490000000000009e+00 1.764930000000000110e+00 4.627710000000000434e+00 1.367991999999999919e+01 5.120689999999999742e+00 3.955500000000000127e-01 1.072541999999999973e+01 1.936199999999999921e+00 1.156500000000000028e-01 1.240151999999999965e+01 5.704599999999999671e-01 1.668970000000000065e+00 1.590432000000000023e+01 1.670179999999999998e+00 5.691390000000000171e+00 2.465160000000000018e+00 2.251180000000000181e+00 4.488220000000000098e+00 6.280359999999999943e+00 4.684199999999999697e+00 4.285700000000000065e-01 1.331892000000000031e+01 1.976299999999999946e+00 4.846219999999999750e+00 9.332810000000000272e+00 5.554109999999999658e+00 1.075849999999999973e+00 1.680452000000000012e+01 3.439119999999999955e+00 4.873450000000000060e+00 1.165471999999999930e+01 1.024850000000000039e+00 1.767099999999999893e+00 6.116520000000000401e+00 -2.370039999999999925e+00 4.601090000000000124e+00 6.573820000000000441e+00 4.346239999999999881e+00 3.692699999999999871e+00 1.945901999999999887e+01 4.779690000000000438e+00 1.096099999999999991e-01 5.653950000000000031e+00 -9.111200000000000410e-01 5.980070000000000441e+00 3.013549999999999951e+00 4.884700000000000153e-01 2.336489999999999956e+00 1.324531999999999954e+01 8.152199999999999447e-01 5.429840000000000444e+00 1.991702000000000083e+01 2.271189999999999820e+00 4.689900000000000180e-01 9.589019999999999655e+00 1.733500000000000041e+00 4.292989999999999640e+00 1.624182000000000059e+01 -2.090770000000000017e+00 5.694449999999999790e+00 1.530282000000000053e+01 3.401699999999999946e+00 4.053180000000000227e+00 3.465920000000000112e+00 1.318079999999999918e+00 1.484960000000000058e+00 1.889382000000000161e+01 -5.947000000000000064e-01 1.783670000000000089e+00 2.008049999999999891e+00 -1.162339999999999929e+00 2.473329999999999806e+00 9.695990000000000109e+00
2.441790000000000127e+00 5.457000000000000045e-02 1.978594000000000008e+01 5.834019999999999762e+00 2.332759999999999945e+00 6.591630000000000322e+00 4.724960000000000271e+00 4.137100000000000222e+00 9.828409999999999869e+00 6.176529999999999632e+00 1.947189999999999976e+00 1.907364000000000104e+01 -2.155429999999999957e+00 3.931719999999999882e+00 1.619913999999999987e+01 1.202820000000000000e+00 2.318540000000000045e+00 3.329279999999999795e+00 2.299059999999999881e+00 4.439339999999999620e+00 1.348973999999999940e+01 1.068049999999999944e+00 6.121819999999999595e+00 1.001899000000000051e+01 -1.256769999999999943e+00 6.318430000000000213e+00 1.292723999999999940e+01 1.447100000000000053e+00 1.948159999999999892e+00 1.601963999999999899e+01 1.301679999999999948e+00 6.338400000000000034e+00 2.858460000000000001e+00 2.435979999999999812e+00 4.592439999999999856e+00 6.257710000000000328e+00 5.101670000000000371e+00 4.700199999999999934e-01 1.282363999999999926e+01 1.860559999999999992e+00 3.787349999999999994e+00 9.277939999999999188e+00 6.105730000000000324e+00 1.505949999999999900e+00 1.625573999999999941e+01 4.861550000000000260e+00 3.940539999999999932e+00 1.282893999999999934e+01 1.303520000000000012e+00 2.052760000000000140e+00 5.874380000000000379e+00 -2.225849999999999884e+00 4.976689999999999614e+00 6.953439999999999621e+00 -2.229280000000000150e+00 4.306949999999999612e+00 1.891423999999999950e+01 4.546359999999999957e+00 2.444000000000000061e-01 5.808329999999999771e+00 -1.431519999999999904e+00 6.345209999999999795e+00 2.531569999999999876e+00 9.196499999999999675e-01 2.175260000000000193e+00 1.317783999999999978e+01 1.462329999999999908e+00 6.164559999999999818e+00 1.997634000000000043e+01 2.122050000000000214e+00 3.986000000000000099e-01 1.020473999999999926e+01 2.556350000000000122e+00 4.320780000000000065e+00 1.603173999999999921e+01 -6.888199999999999878e-01 6.217710000000000292e+00 1.567703999999999986e+01 2.914299999999999891e+00 4.259900000000000020e+00 3.035870000000000068e+00 1.309639999999999915e+00 2.268920000000000048e+00 1.911144000000000176e+01 -1.255149999999999988e+00 2.439430000000000209e+00 2.493630000000000013e+00 -9.012700000000000156e-01 1.939850000000000074e+00 9.352169999999999206e+00
-1.073690000000000033e+00 5.679929999999999701e+00 9.253999999999999726e-02 -1.241419999999999968e+00 2.805800000000000072e+00 6.991590000000000416e+00 4.803749999999999964e+00 4.464059999999999917e+00 1.012072000000000038e+01 6.236110000000000042e+00 1.579550000000000010e+00 1.921069999999999922e+01 5.142129999999999868e+00 4.029010000000000424e+00 1.657400000000000162e+01 1.503409999999999913e+00 2.640159999999999840e+00 3.824679999999999858e+00 2.236530000000000129e+00 4.029950000000000365e+00 1.323649999999999949e+01 9.062500000000000000e-01 6.254629999999999690e+00 1.036340000000000039e+01 1.934940000000000104e+00 3.325000000000000178e-01 1.288260000000000005e+01 1.048110000000000097e+00 1.905610000000000026e+00 1.662099999999999866e+01 5.417589999999999684e+00 3.315600000000000214e-01 3.494540000000000202e+00 2.882219999999999782e+00 4.696760000000000268e+00 6.486279999999999824e+00 1.067709999999999937e+00 6.463149999999999729e+00 1.289610000000000056e+01 2.389289999999999914e+00 4.475699999999999790e+00 9.309549999999999770e+00 5.863920000000000243e+00 1.567779999999999951e+00 1.624620000000000175e+01 4.781019999999999825e+00 3.851370000000000182e+00 1.271400000000000041e+01 1.395489999999999897e+00 2.506240000000000023e+00 6.391849999999999810e+00 -2.150370000000000115e+00 5.234210000000000029e+00 6.544590000000000352e+00 4.915849999999999831e+00 3.761519999999999975e+00 1.944660000000000011e+01 4.953039999999999665e+00 6.627100000000000213e-01 6.013329999999999842e+00 2.944519999999999804e+00 5.561099999999999932e-01 2.546660000000000146e+00 3.979699999999999904e-01 2.325979999999999936e+00 1.344059999999999988e+01 1.337919999999999998e+00 5.672229999999999883e+00 2.021989999999999910e+01 2.299329999999999874e+00 3.456500000000000128e-01 1.037289999999999957e+01 2.327760000000000051e+00 4.429809999999999803e+00 1.611690000000000111e+01 -1.681040000000000090e+00 6.390600000000000058e+00 1.547139999999999915e+01 3.158640000000000114e+00 4.620720000000000383e+00 3.618889999999999940e+00 1.311160000000000103e+00 1.695500000000000007e+00 1.944729999999999848e+01 -9.231099999999999861e-01 2.636050000000000004e+00 2.966190000000000104e+00 5.921940000000000204e+00 2.346670000000000034e+00 9.424139999999999517e+00
-1.060880000000000045e+00 5.893099999999999561e+00 1.935900000000000121e-01 -1.409739999999999993e+00 2.991130000000000067e+00 6.297010000000000218e+00 4.378730000000000011e+00 4.743570000000000064e+00 9.441169999999999618e+00 -8.596200000000000507e-01 2.046829999999999927e+00 1.962143999999999977e+01 4.941790000000000127e+00 3.966790000000000038e+00 1.649063999999999908e+01 1.554000000000000048e+00 2.065350000000000019e+00 3.871929999999999872e+00 2.014800000000000146e+00 4.335600000000000342e+00 1.316294000000000075e+01 4.594479999999999897e+00 3.170899999999999830e-01 9.677670000000000883e+00 -1.735510000000000108e+00 6.298289999999999722e+00 1.266743999999999915e+01 8.953400000000000247e-01 1.843110000000000026e+00 1.619773999999999958e+01 5.069609999999999950e+00 4.117899999999999894e-01 2.591600000000000126e+00 2.355360000000000120e+00 5.346370000000000289e+00 6.131129999999999747e+00 9.929700000000000193e-01 6.535219999999999807e+00 1.238283999999999985e+01 1.457929999999999948e+00 4.254599999999999937e+00 8.793950000000000600e+00 5.760880000000000223e+00 1.617830000000000101e+00 1.695113999999999876e+01 4.334579999999999878e+00 4.023729999999999585e+00 1.206723999999999997e+01 1.257740000000000080e+00 2.836539999999999839e+00 6.236229999999999940e+00 -2.559610000000000163e+00 5.441259999999999764e+00 6.826130000000000031e+00 4.697659999999999947e+00 4.250519999999999854e+00 1.928333999999999904e+01 4.305889999999999773e+00 9.818099999999999605e-01 5.936060000000000336e+00 -1.050869999999999971e+00 6.389149999999999885e+00 2.827129999999999921e+00 3.201399999999999801e-01 2.257089999999999819e+00 1.348944000000000010e+01 1.692450000000000010e+00 5.820079999999999920e+00 1.090700000000000003e-01 1.954059999999999908e+00 5.788299999999999557e-01 1.011398999999999937e+01 2.244870000000000143e+00 4.304870000000000196e+00 1.590474000000000032e+01 -1.226089999999999902e+00 6.062050000000000161e+00 1.544294000000000011e+01 2.613350000000000062e+00 4.530339999999999812e+00 3.456440000000000179e+00 1.641550000000000065e+00 2.193430000000000213e+00 1.901754000000000033e+01 -8.112500000000000266e-01 2.530969999999999942e+00 2.325750000000000206e+00 -1.264720000000000066e+00 2.548340000000000050e+00 9.192729999999999180e+00
2.356240000000000112e+00 7.799000000000000377e-02 1.936100000000000043e-01 -1.263230000000000075e+00 1.952380000000000004e+00 6.499900000000000233e+00 -2.486870000000000136e+00 4.299710000000000143e+00 9.483370000000000744e+00 5.682280000000000442e+00 1.615730000000000111e+00 1.933352999999999966e+01 4.354149999999999743e+00 3.644620000000000193e+00 1.631712999999999880e+01 1.449030000000000040e+00 2.253420000000000201e+00 3.309699999999999864e+00 1.957570000000000032e+00 3.969230000000000036e+00 1.267272999999999961e+01 4.651900000000000368e+00 9.309000000000000608e-02 9.588010000000000588e+00 -1.522869999999999946e+00 6.139669999999999739e+00 1.221563000000000088e+01 6.100100000000000522e-01 1.538499999999999979e+00 1.539943000000000062e+01 1.228660000000000085e+00 6.318419999999999703e+00 2.764569999999999972e+00 2.448069999999999968e+00 4.382799999999999585e+00 6.207530000000000214e+00 4.805790000000000006e+00 1.379700000000000093e-01 1.237082999999999977e+01 2.002139999999999809e+00 4.010950000000000237e+00 9.344060000000000699e+00 5.336079999999999934e+00 1.176299999999999901e+00 1.614782999999999902e+01 4.530940000000000190e+00 3.911599999999999966e+00 1.231573000000000029e+01 1.292280000000000095e+00 1.824810000000000043e+00 5.950660000000000061e+00 -2.307370000000000143e+00 4.527230000000000310e+00 6.687820000000000320e+00 4.128849999999999909e+00 3.976420000000000066e+00 1.921652999999999878e+01 4.447479999999999656e+00 -6.909999999999999476e-02 6.117510000000000225e+00 -1.483330000000000037e+00 6.293260000000000076e+00 2.644919999999999938e+00 5.571700000000000541e-01 1.752080000000000082e+00 1.258243000000000045e+01 1.290939999999999976e+00 5.977350000000000385e+00 1.634299999999999919e-01 2.102279999999999927e+00 4.169200000000000128e-01 9.613910000000000622e+00 1.825129999999999919e+00 3.656569999999999876e+00 1.554523000000000010e+01 -1.958560000000000079e+00 5.762019999999999698e+00 1.532992999999999917e+01 2.928560000000000052e+00 4.447820000000000107e+00 3.511439999999999895e+00 8.749500000000000055e-01 1.853380000000000027e+00 1.899463000000000079e+01 -1.081669999999999909e+00 2.433460000000000178e+00 2.824209999999999887e+00 -1.018229999999999968e+00 2.040719999999999867e+00 9.319520000000000692e+00
2.469749999999999890e+00 5.494000000000000272e-02 1.981031000000000120e+01 5.763390000000000235e+00 2.361310000000000020e+00 6.569600000000000328e+00 4.772090000000000387e+00 4.083809999999999718e+00 9.852339999999999876e+00 6.228650000000000020e+00 1.926129999999999898e+00 1.917911000000000143e+01 -2.151299999999999990e+00 3.935690000000000133e+00 1.620811000000000135e+01 1.180139999999999967e+00 2.340190000000000214e+00 3.364320000000000199e+00 2.306859999999999911e+00 4.438830000000000275e+00 1.356770999999999994e+01 1.015139999999999931e+00 6.182240000000000180e+00 9.999980000000000757e+00 -1.203170000000000073e+00 6.304210000000000313e+00 1.294730999999999987e+01 1.433619999999999894e+00 1.882439999999999891e+00 1.614070999999999856e+01 1.272040000000000060e+00 6.397420000000000329e+00 2.878699999999999815e+00 2.383129999999999971e+00 4.503040000000000376e+00 6.289150000000000240e+00 5.141790000000000305e+00 3.945899999999999963e-01 1.285391000000000084e+01 1.841970000000000107e+00 3.756229999999999958e+00 9.367810000000000414e+00 6.137800000000000367e+00 1.542799999999999949e+00 1.631921000000000177e+01 4.879459999999999908e+00 3.983870000000000022e+00 1.290160999999999980e+01 1.363529999999999909e+00 2.148489999999999789e+00 5.872359999999999580e+00 -2.246249999999999858e+00 5.003759999999999764e+00 6.997239999999999682e+00 -2.261060000000000070e+00 4.235719999999999708e+00 1.886490999999999829e+01 4.604720000000000368e+00 3.573999999999999955e-01 5.857109999999999594e+00 2.251980000000000093e+00 2.438999999999999849e-02 2.515719999999999956e+00 9.254400000000000404e-01 2.163060000000000205e+00 1.323981000000000030e+01 1.510620000000000074e+00 6.169430000000000192e+00 2.003500999999999976e+01 2.152600000000000069e+00 3.677300000000000013e-01 1.016710999999999920e+01 2.640670000000000073e+00 4.364020000000000010e+00 1.603571000000000168e+01 -6.839600000000000124e-01 6.276110000000000078e+00 1.572521000000000058e+01 2.836110000000000131e+00 4.319020000000000081e+00 3.053069999999999951e+00 1.256599999999999939e+00 2.322420000000000151e+00 1.914210999999999885e+01 -1.171310000000000073e+00 2.502870000000000150e+00 2.497819999999999929e+00 -9.302700000000000413e-01 1.943550000000000111e+00 9.447710000000000719e+00
2.363379999999999814e+00 5.120700000000000252e-01 2.011672000000000082e+01 -1.304559999999999942e+00 2.514330000000000176e+00 5.836899999999999977e+00 4.568760000000000154e+00 4.060570000000000235e+00 9.676759999999999806e+00 -1.497290000000000010e+00 2.660730000000000040e+00 1.978481999999999985e+01 -2.875970000000000137e+00 5.076920000000000321e+00 1.735061999999999927e+01 1.423769999999999980e+00 1.858170000000000099e+00 3.699939999999999785e+00 2.368430000000000035e+00 4.487160000000000259e+00 1.336651999999999951e+01 9.145499999999999741e-01 6.585320000000000285e+00 9.780749999999999389e+00 1.795870000000000077e+00 3.982499999999999929e-01 1.191102000000000061e+01 9.589199999999999946e-01 2.528700000000000170e+00 1.695461999999999847e+01 1.467300000000000049e+00 6.447879999999999612e+00 3.122990000000000155e+00 2.541300000000000114e+00 4.317140000000000200e+00 6.050360000000000404e+00 4.365719999999999601e+00 2.827500000000000013e-01 1.247652000000000072e+01 2.014110000000000067e+00 4.308110000000000106e+00 9.080479999999999663e+00 5.726390000000000313e+00 2.663790000000000102e+00 1.698722000000000065e+01 4.900809999999999889e+00 4.242840000000000167e+00 1.255461999999999989e+01 1.153359999999999941e+00 1.872239999999999904e+00 6.363430000000000142e+00 -2.405279999999999863e+00 4.803440000000000154e+00 6.720810000000000173e+00 4.499939999999999607e+00 4.817569999999999908e+00 2.002301999999999893e+01 4.750949999999999562e+00 1.118500000000000050e-01 5.804509999999999614e+00 -1.222229999999999928e+00 6.271349999999999980e+00 2.751570000000000071e+00 9.510600000000000165e-01 2.358839999999999826e+00 1.339832000000000001e+01 1.664369999999999905e+00 6.119510000000000005e+00 3.422499999999999987e-01 1.836319999999999952e+00 2.714900000000000091e-01 9.347920000000000229e+00 2.172870000000000079e+00 4.906690000000000218e+00 1.606591999999999842e+01 2.544160000000000199e+00 4.263799999999999812e-01 1.688571999999999917e+01 2.883900000000000130e+00 4.101399999999999935e+00 3.311980000000000146e+00 1.206520000000000037e+00 2.815669999999999895e+00 1.968751999999999924e+01 -9.936500000000000332e-01 2.352129999999999832e+00 3.013799999999999812e+00 -1.190949999999999953e+00 2.196820000000000217e+00 9.135839999999999961e+00
-1.175829999999999931e+00 6.220189999999999664e+00 1.316400000000000070e-01 -1.360239999999999894e+00 2.447690000000000143e+00 6.933980000000000032e+00 4.672939999999999650e+00 4.390220000000000233e+00 9.435610000000000497e+00 -1.026759999999999895e+00 2.465250000000000163e+00 2.007627000000000095e+01 -2.241190000000000015e+00 4.230400000000000382e+00 1.699277000000000015e+01 1.466749999999999998e+00 2.264180000000000081e+00 2.974810000000000176e+00 2.221709999999999852e+00 4.233620000000000161e+00 1.389316999999999958e+01 1.313749999999999973e+00 6.329080000000000261e+00 1.036227000000000054e+01 2.251030000000000086e+00 1.035299999999999970e-01 1.290277000000000029e+01 1.166789999999999994e+00 1.862789999999999946e+00 1.627867000000000175e+01 5.304350000000000342e+00 2.118800000000000128e-01 2.847030000000000172e+00 2.312669999999999781e+00 4.579640000000000377e+00 6.115380000000000038e+00 1.038910000000000000e+00 6.428849999999999731e+00 1.303096999999999994e+01 2.091310000000000002e+00 4.108270000000000088e+00 9.361800000000000566e+00 6.011370000000000324e+00 1.636279999999999957e+00 1.725366999999999962e+01 4.704019999999999868e+00 3.973019999999999996e+00 1.306476999999999933e+01 1.182779999999999943e+00 2.132200000000000095e+00 5.786400000000000432e+00 -2.498880000000000212e+00 4.793569999999999887e+00 6.552120000000000388e+00 4.714839999999999698e+00 4.345110000000000028e+00 1.962067000000000050e+01 4.818329999999999558e+00 6.686600000000000321e-01 5.681989999999999874e+00 2.592480000000000118e+00 2.876000000000000084e-02 2.901120000000000143e+00 7.237799999999999789e-01 2.025510000000000144e+00 1.347207000000000043e+01 1.504089999999999927e+00 6.210250000000000270e+00 2.935300000000000131e-01 2.319479999999999986e+00 1.378600000000000103e-01 9.957789999999999253e+00 2.624530000000000030e+00 4.265130000000000088e+00 1.646337000000000117e+01 -1.056619999999999893e+00 6.283809999999999896e+00 1.599846999999999930e+01 2.819490000000000052e+00 4.451529999999999987e+00 3.342260000000000009e+00 1.625329999999999941e+00 2.394870000000000054e+00 1.996327000000000140e+01 -1.171229999999999993e+00 2.557869999999999866e+00 2.536799999999999944e+00 -1.207330000000000014e+00 2.307269999999999932e+00 9.548970000000000624e+00
2.818080000000000140e+00 -7.005999999999999728e-02 1.978726999999999947e+01 -6.597100000000000186e-01 1.672190000000000065e+00 7.175159999999999982e+00 -2.216029999999999944e+00 4.087360000000000326e+00 9.434570000000000789e+00 6.787860000000000227e+00 1.525649999999999951e+00 1.912497000000000114e+01 5.166690000000000005e+00 4.111229999999999940e+00 1.681056999999999846e+01 1.116309999999999913e+00 2.358000000000000096e+00 3.604420000000000179e+00 2.420170000000000154e+00 3.910280000000000200e+00 1.286716999999999977e+01 1.331299999999999928e+00 6.232929999999999637e+00 9.919869999999999521e+00 -1.257120000000000015e+00 5.882909999999999862e+00 1.277997000000000050e+01 1.264420000000000099e+00 1.908169999999999922e+00 1.560126999999999953e+01 5.511899999999999800e+00 4.175999999999999851e-02 2.604060000000000041e+00 3.124890000000000168e+00 3.980179999999999829e+00 6.257100000000000328e+00 5.008680000000000021e+00 -1.894500000000000073e-01 1.242746999999999957e+01 2.745420000000000194e+00 3.888479999999999936e+00 9.240199999999999747e+00 6.175670000000000215e+00 1.747400000000000064e+00 1.618536999999999892e+01 5.370879999999999654e+00 3.768479999999999830e+00 1.223096999999999923e+01 1.954720000000000013e+00 1.784659999999999913e+00 5.980489999999999640e+00 -1.953770000000000007e+00 4.013429999999999609e+00 6.502989999999999604e+00 -1.906619999999999981e+00 3.800969999999999960e+00 1.944247000000000014e+01 5.924839999999999662e+00 -7.760000000000000231e-02 5.846580000000000332e+00 2.989030000000000076e+00 1.945800000000000030e-01 2.720260000000000122e+00 9.990099999999999536e-01 1.770669999999999966e+00 1.264786999999999928e+01 1.501209999999999933e+00 5.878659999999999997e+00 1.950846999999999909e+01 2.481869999999999798e+00 8.559999999999999554e-02 9.788259999999999295e+00 2.759930000000000216e+00 4.240619999999999834e+00 1.562346999999999930e+01 -1.272690000000000099e+00 6.057030000000000136e+00 1.569477000000000011e+01 2.892770000000000064e+00 4.378459999999999575e+00 3.189970000000000194e+00 1.518769999999999953e+00 1.843080000000000052e+00 1.859157000000000082e+01 -1.138910000000000089e+00 2.207359999999999989e+00 2.554720000000000102e+00 -6.995700000000000252e-01 1.862679999999999891e+00 9.817199999999999704e+00
-1.105629999999999891e+00 6.177200000000000024e+00 3.102300000000000058e-01 -1.300720000000000098e+00 2.392310000000000159e+00 6.654219999999999580e+00 4.536330000000000418e+00 4.445669999999999789e+00 9.446479999999999322e+00 -1.130640000000000089e+00 2.430330000000000101e+00 1.933927999999999869e+01 4.576620000000000132e+00 4.608319999999999972e+00 1.671847999999999956e+01 1.561150000000000038e+00 2.005700000000000038e+00 3.430730000000000057e+00 2.015080000000000204e+00 4.813080000000000247e+00 1.352107999999999954e+01 9.883300000000000418e-01 6.463799999999999990e+00 1.015949999999999953e+01 1.519479999999999942e+00 4.531200000000000228e-01 1.262627999999999950e+01 8.796199999999999575e-01 2.318729999999999958e+00 1.591147999999999918e+01 1.789959999999999996e+00 6.254579999999999806e+00 2.709159999999999791e+00 2.466769999999999907e+00 4.524140000000000050e+00 6.059980000000000366e+00 4.258180000000000298e+00 5.315100000000000380e-01 1.271637999999999913e+01 1.967489999999999961e+00 4.190649999999999764e+00 9.014139999999999375e+00 5.725050000000000416e+00 2.258249999999999869e+00 1.661708000000000141e+01 4.283220000000000027e+00 4.447020000000000195e+00 1.249807999999999986e+01 1.267800000000000038e+00 2.123889999999999834e+00 6.105080000000000062e+00 -2.275650000000000173e+00 4.698240000000000194e+00 6.527709999999999901e+00 4.570199999999999818e+00 4.428029999999999688e+00 1.946897999999999840e+01 4.681919999999999860e+00 4.013399999999999745e-01 5.546809999999999796e+00 -9.009500000000000286e-01 6.085259999999999891e+00 2.925629999999999953e+00 2.558000000000000274e-01 2.729670000000000041e+00 1.324517999999999951e+01 1.213899999999999979e+00 6.262859999999999872e+00 1.994307999999999836e+01 2.036750000000000060e+00 5.147699999999999498e-01 9.618470000000000297e+00 1.960669999999999913e+00 4.862049999999999983e+00 1.622558000000000078e+01 -1.312210000000000099e+00 6.489080000000000403e+00 1.545668000000000042e+01 3.190290000000000070e+00 4.040490000000000137e+00 3.232749999999999790e+00 1.471700000000000008e+00 2.417889999999999873e+00 1.929408000000000101e+01 -8.162800000000000056e-01 2.248200000000000198e+00 2.346099999999999852e+00 5.965060000000000251e+00 2.253909999999999858e+00 9.344960000000000377e+00
-1.316480000000000095e+00 6.144479999999999720e+00 8.300000000000000086e-04 6.168980000000000352e+00 2.095759999999999845e+00 6.978390000000000093e+00 4.841050000000000075e+00 4.370129999999999626e+00 9.357499999999999929e+00 -9.656400000000000539e-01 1.974029999999999951e+00 2.005274000000000001e+01 4.784370000000000012e+00 4.386980000000000324e+00 1.712023999999999901e+01 1.504010000000000069e+00 2.235780000000000101e+00 3.437759999999999927e+00 2.570510000000000073e+00 4.454869999999999663e+00 1.354274000000000022e+01 7.986799999999999455e-01 6.198889999999999567e+00 1.016314000000000028e+01 2.162949999999999928e+00 3.623799999999999799e-01 1.265164000000000044e+01 1.047369999999999912e+00 2.383239999999999803e+00 1.645083999999999946e+01 1.577080000000000037e+00 6.063279999999999781e+00 2.518019999999999925e+00 2.395129999999999981e+00 4.304429999999999978e+00 6.440489999999999604e+00 4.908909999999999663e+00 1.142600000000000005e-01 1.268313999999999986e+01 2.098450000000000149e+00 4.225329999999999586e+00 9.060380000000000322e+00 5.930220000000000269e+00 1.927729999999999944e+00 1.678193999999999875e+01 4.916360000000000063e+00 4.185380000000000322e+00 1.233933999999999997e+01 1.325749999999999984e+00 2.056540000000000035e+00 6.069679999999999964e+00 -2.293109999999999982e+00 4.553499999999999659e+00 6.651950000000000252e+00 4.701170000000000293e+00 4.224789999999999601e+00 1.969294000000000011e+01 4.698559999999999626e+00 8.636000000000000620e-02 6.124130000000000074e+00 2.693459999999999965e+00 5.294999999999999707e-02 2.580239999999999867e+00 9.538799999999999502e-01 2.334950000000000081e+00 1.351863999999999955e+01 1.440669999999999895e+00 6.009890000000000398e+00 2.015373999999999910e+01 2.215219999999999967e+00 5.390399999999999636e-01 9.656950000000000145e+00 2.138170000000000126e+00 4.827359999999999651e+00 1.622424000000000177e+01 -1.758369999999999989e+00 6.281049999999999578e+00 1.577483999999999931e+01 3.295279999999999987e+00 4.269969999999999821e+00 3.325070000000000192e+00 1.595380000000000020e+00 2.376450000000000173e+00 1.958703999999999823e+01 -8.842499999999999805e-01 2.327420000000000044e+00 2.419830000000000148e+00 -1.213910000000000045e+00 2.208380000000000010e+00 9.775570000000000093e+00
-1.522159999999999958e+00 6.216120000000000090e+00 4.298299999999999899e-01 6.280789999999999651e+00 1.949340000000000073e+00 6.665610000000000035e+00 -1.981230000000000047e+00 4.708929999999999616e+00 8.421219999999999928e+00 6.394829999999999792e+00 1.781959999999999988e+00 1.948168000000000077e+01 -1.582179999999999920e+00 3.470880000000000187e+00 1.558018000000000036e+01 9.348699999999999788e-01 2.096080000000000165e+00 3.058310000000000084e+00 3.054809999999999803e+00 3.841740000000000155e+00 1.272547999999999924e+01 1.193729999999999958e+00 5.964430000000000121e+00 9.362619999999999720e+00 -5.025800000000000267e-01 5.642339999999999911e+00 1.283047999999999966e+01 1.571120000000000072e+00 1.657489999999999908e+00 1.474628000000000050e+01 1.475070000000000103e+00 6.293020000000000280e+00 2.394019999999999815e+00 2.367999999999999883e+00 4.430329999999999657e+00 6.150529999999999831e+00 5.791579999999999728e+00 -2.241299999999999959e-01 1.210937999999999981e+01 2.905219999999999914e+00 3.947799999999999976e+00 9.201890000000000569e+00 -5.283299999999999663e-01 1.172630000000000061e+00 1.632898000000000138e+01 -1.622460000000000013e+00 3.330280000000000129e+00 1.275918000000000063e+01 1.301809999999999912e+00 1.980469999999999953e+00 5.890189999999999593e+00 5.083129999999999704e+00 4.178460000000000285e+00 5.847299999999999720e+00 5.265450000000000408e+00 3.907869999999999955e+00 1.856187999999999860e+01 4.290339999999999598e+00 1.444000000000000006e-01 6.431169999999999831e+00 -1.317029999999999923e+00 6.064059999999999562e+00 3.079340000000000188e+00 1.958380000000000010e+00 1.648539999999999894e+00 1.198028000000000048e+01 1.399280000000000079e+00 5.752950000000000230e+00 1.919628000000000156e+01 2.205550000000000122e+00 2.362700000000000078e-01 1.008367999999999931e+01 2.963299999999999823e+00 3.849380000000000024e+00 1.549817999999999962e+01 3.206550000000000011e+00 -2.058500000000000052e-01 1.537157999999999980e+01 2.840809999999999835e+00 4.429780000000000051e+00 3.525710000000000122e+00 1.267859999999999987e+00 2.285590000000000011e+00 2.875400000000000178e-01 5.959939999999999571e+00 2.462590000000000057e+00 2.612480000000000135e+00 6.115230000000000388e+00 2.059050000000000047e+00 9.354929999999999524e+00
2.200930000000000053e+00 -3.348300000000000165e-01 1.954721999999999937e+01 -1.106039999999999912e+00 2.022580000000000044e+00 6.614300000000000068e+00 4.494589999999999641e+00 4.187509999999999621e+00 9.118359999999999133e+00 -1.496469999999999967e+00 1.630390000000000006e+00 1.912872000000000128e+01 -2.605480000000000018e+00 3.825330000000000119e+00 1.650422000000000011e+01 1.111650000000000027e+00 2.418989999999999974e+00 2.985679999999999890e+00 2.129309999999999814e+00 3.649989999999999846e+00 1.320682000000000045e+01 4.422649999999999970e+00 -1.509999999999999953e-01 9.771850000000000591e+00 -1.763339999999999907e+00 5.799080000000000013e+00 1.245622000000000007e+01 1.006960000000000077e+00 1.602749999999999897e+00 1.602291999999999916e+01 4.932590000000000252e+00 2.154399999999999926e-01 2.921739999999999782e+00 2.224110000000000031e+00 4.507430000000000270e+00 5.931009999999999671e+00 7.493999999999999551e-01 5.975979999999999848e+00 1.240091999999999928e+01 1.912830000000000030e+00 4.125890000000000057e+00 8.799910000000000565e+00 5.465340000000000309e+00 1.268829999999999902e+00 1.643311999999999884e+01 4.347430000000000128e+00 3.456490000000000062e+00 1.198952000000000062e+01 1.278650000000000064e+00 1.964909999999999934e+00 5.679140000000000299e+00 -2.343220000000000081e+00 4.453280000000000349e+00 6.406460000000000043e+00 4.362009999999999721e+00 3.868339999999999890e+00 1.906652000000000058e+01 4.484960000000000058e+00 2.280999999999999972e-01 5.643679999999999808e+00 2.125059999999999949e+00 1.682000000000000162e-02 2.471560000000000201e+00 5.025899999999999812e-01 1.626819999999999933e+00 1.303781999999999996e+01 1.334200000000000053e+00 6.155960000000000321e+00 2.482900000000000107e-01 1.955929999999999946e+00 3.530000000000000152e-03 9.685240000000000293e+00 1.932450000000000001e+00 4.115240000000000009e+00 1.578362000000000087e+01 -1.174569999999999892e+00 5.802920000000000300e+00 1.560521999999999920e+01 2.708600000000000119e+00 4.581360000000000099e+00 3.122669999999999835e+00 1.149459999999999926e+00 1.805290000000000061e+00 1.874071999999999960e+01 -1.382949999999999902e+00 2.602149999999999963e+00 2.327430000000000110e+00 -1.245260000000000034e+00 1.849779999999999980e+00 9.307150000000000034e+00