-1.046089678799999945e+02
-1.069912762600000065e+02
-1.053641150899999985e+02
-1.062783343300000070e+02
-1.069773211600000025e+02
-1.063536630199999991e+02
-1.070979879000000068e+02
-1.070757070700000071e+02
-1.053239561799999962e+02
-1.082876154500000041e+02
-1.072926635099999970e+02
-1.046931643799999989e+02
-1.080856107799999961e+02
-1.068508230300000008e+02
-1.066929428499999943e+02
-1.080678022599999935e+02
-1.070682022099999955e+02
-1.081775938100000047e+02
-1.067682161700000023e+02
-1.083749501199999941e+02
-1.071086029500000052e+02
-1.042733951999999960e+02
-1.071280076799999961e+02
-1.084484227500000060e+02
-1.069287353800000062e+02
-1.082983794799999941e+02
-1.047219158500000020e+02
-1.071620405999999974e+02
-1.084555142100000040e+02
-1.070368170600000042e+02
-1.064009754199999946e+02
-1.056238315100000023e+02
-1.062724953700000015e+02
-1.084174723999999941e+02
-1.062061024700000047e+02
-1.084229880400000070e+02
-1.083274730199999993e+02
-1.076794481200000035e+02
-1.084157957399999930e+02
-1.073863776000000030e+02
-1.074833132499999948e+02
-1.084080043499999988e+02
-1.075420088900000053e+02
-1.072386591799999991e+02
-1.069637847200000067e+02
-1.053500769099999985e+02
-1.063375305499999968e+02
-1.079064638699999961e+02
-1.037785884799999963e+02
-1.058927836700000000e+02
