6.009559999999999569e+00 4.232389999999999652e+00 3.202360000000000095e+00 9.937290000000000845e+00 5.264549999999999841e+00 3.306210000000000093e+00 9.689920000000000755e+00 3.544909999999999783e+00 6.835390000000000299e+00 7.846140000000000114e+00 1.212830000000000075e+00 4.522050000000000125e+00 7.513230000000000075e+00 5.938489999999999824e+00 8.805270000000000152e+00 4.582150000000000389e+00 4.444950000000000401e+00 7.765539999999999665e+00 1.283742999999999945e+01 5.223270000000000302e+00 5.724879999999999747e+00 1.490113000000000021e+01 2.375939999999999941e+00 8.046939999999999316e+00 5.909790000000000099e+00 1.818429999999999991e+00 3.031019999999999825e+00 7.676370000000000360e+00 5.899930000000000341e+00 1.836870000000000003e+00 1.003379999999999939e+01 2.615369999999999973e+00 4.231670000000000265e+00 1.255030999999999963e+01 6.093180000000000263e+00 3.014009999999999856e+00 9.618119999999999337e+00 6.248370000000000424e+00 5.907060000000000421e+00 6.417769999999999975e+00 5.021950000000000358e+00 6.455370000000000275e+00 8.439009999999999678e+00 1.206990000000000007e+00 7.309289999999999843e+00 1.293833000000000055e+01 2.441190000000000193e+00 6.377889999999999837e+00 3.831420000000000048e+00 2.027880000000000127e+00 8.920769999999999200e+00 9.784380000000000521e+00 4.885570000000000412e+00 9.103740000000000165e+00 4.962810000000000166e+00 6.309929999999999595e+00 9.741540000000000532e+00 1.552823000000000064e+01 4.802979999999999805e+00 7.238839999999999719e+00
6.047450000000000436e+00 6.077549999999999564e+00 5.071489999999999831e+00 8.567019999999999413e+00 1.031309999999999949e+00 7.575499999999999456e-01 7.329900000000000304e+00 3.439970000000000194e+00 2.586320000000000174e+00 4.521749999999999936e+00 6.726999999999999647e-02 5.408899999999999819e-01 5.946710000000000385e+00 5.037090000000000067e+00 8.326140000000000541e+00 4.499620000000000175e+00 1.843830000000000080e+00 9.097229999999999706e+00 1.066496000000000066e+01 4.854890000000000150e+00 1.104160000000000075e+01 8.243940000000000268e+00 1.863869999999999916e+00 1.025750000000000028e+01 3.118450000000000166e+00 9.292899999999999494e-01 2.761639999999999873e+01 8.082280000000000797e+00 4.231250000000000178e+00 4.589360000000000106e+00 5.676989999999999981e+00 6.037340000000000373e+00 2.488760000000000083e+00 8.161149999999999238e+00 3.914019999999999833e+00 1.018499999999999961e-01 6.320369999999999600e+00 1.127799999999999914e+00 2.127670000000000172e+00 2.364329999999999821e+00 3.465559999999999974e+00 8.853790000000000049e+00 4.046990000000000087e+00 5.300150000000000361e+00 6.677450000000000330e+00 4.456500000000000128e+00 2.638699999999999934e-01 7.193670000000000009e+00 8.980299999999999727e+00 3.289060000000000095e+00 1.218900000000000006e+01 6.878479999999999706e+00 2.756769999999999943e+00 7.765839999999999854e+00 5.869659999999999656e+00 8.978699999999999459e-01 1.126379999999999981e+01 5.375700000000000145e+00 5.939269999999999605e+00 1.101140000000000008e+01
3.998310000000000031e+00 3.603219999999999867e+00 3.376479999999999926e+00 6.260830000000000339e+00 6.071410000000000196e+00 4.350620000000000154e+00 8.405530000000000612e+00 2.689900000000000180e+00 4.355920000000000236e+00 1.016183000000000014e+01 6.653810000000000002e+00 3.520540000000000003e+00 1.560840000000000005e+00 4.474500000000000144e-01 8.309210000000000207e+00 4.909220000000000361e+00 4.053469999999999906e+00 7.598480000000000345e+00 6.268089999999999939e+00 9.435900000000000398e-01 7.858200000000000074e+00 8.913190000000000168e+00 5.398039999999999949e+00 8.781269999999999243e+00 2.416310000000000180e+00 1.590710000000000068e+00 2.933040000000000092e+00 4.327440000000000175e+00 5.864029999999999632e+00 2.387989999999999835e+00 6.493079999999999963e+00 1.774540000000000006e+00 2.830799999999999983e+00 8.352660000000000196e+00 5.152590000000000003e+00 2.736969999999999903e+00 3.788400000000000101e-01 5.050400000000000444e-01 6.152280000000000193e+00 2.913889999999999869e+00 4.083359999999999879e+00 5.790860000000000340e+00 9.133810000000000429e+00 6.870129999999999626e+00 6.335849999999999760e+00 7.114449999999999719e+00 4.283999999999999808e+00 6.086800000000000210e+00 3.815929999999999822e+00 2.312429999999999986e+00 9.222680000000000433e+00 6.396209999999999951e+00 5.701529999999999987e+00 9.374100000000000321e+00 7.837119999999999642e+00 2.023309999999999942e+00 9.471560000000000201e+00 1.076482999999999990e+01 6.308880000000000265e+00 9.881040000000000489e+00
2.506730000000000125e+00 3.643100000000000005e+00 5.012710000000000221e+00 7.000539999999999985e+00 5.492840000000000167e+00 2.955169999999999852e+00 4.553900000000000170e-01 -3.731999999999999901e-02 2.394280000000000186e+00 9.620449999999999946e+00 3.747959999999999958e+00 5.133440000000000225e+00 1.084645000000000081e+01 2.456589999999999829e+00 9.134499999999999176e+00 6.488319999999999865e+00 5.253630000000000244e+00 7.456319999999999837e+00 4.630760000000000431e+00 1.445650000000000102e+00 5.873000000000000220e+00 1.196316000000000024e+01 5.785650000000000404e+00 8.650320000000000675e+00 5.763139999999999930e+00 5.378239999999999910e+00 6.749899999999999789e-01 1.266286000000000023e+01 5.513790000000000191e+00 3.229760000000000186e+00 4.206439999999999735e+00 2.234510000000000218e+00 3.489660000000000206e+00 8.672790000000000887e+00 3.676829999999999821e+00 2.757989999999999942e+00 1.047194999999999965e+01 5.933580000000000076e+00 6.491159999999999819e+00 1.138822000000000045e+01 2.089879999999999960e+00 6.464109999999999800e+00 5.889920000000000044e+00 6.283579999999999721e+00 4.956599999999999895e+00 3.367589999999999861e+00 5.365409999999999791e+00 7.402860000000000440e+00 7.209039999999999893e+00 2.900910000000000100e+00 6.723729999999999762e+00 3.577539999999999942e+00 1.009609999999999896e+00 8.356180000000000163e+00 1.212756000000000078e+01 3.818280000000000118e+00 1.032479999999999976e+01 8.442119999999999180e+00 1.848689999999999944e+00 9.824070000000000746e+00
7.555419999999999803e+00 4.333910000000000373e+00 3.946340000000000181e+00 1.070828999999999986e+01 4.972439999999999749e+00 3.086520000000000152e+00 9.694060000000000343e+00 3.339830000000000076e+00 7.641499999999999737e+00 9.828770000000000451e+00 1.326920000000000099e+00 4.241450000000000387e+00 6.917790000000000106e+00 6.216490000000000293e+00 7.477520000000000167e+00 4.119040000000000035e+00 4.840019999999999989e+00 7.545359999999999623e+00 1.208000000000000007e+01 5.940129999999999910e+00 6.662069999999999936e+00 1.608889999999999931e+00 2.165459999999999940e+00 8.221790000000000376e+00 7.011709999999999887e+00 2.083670000000000133e+00 4.240779999999999994e+00 8.620689999999999742e+00 5.278590000000000337e+00 1.819960000000000022e+00 1.104100999999999999e+01 2.260029999999999983e+00 2.418109999999999982e+00 1.326248999999999967e+01 5.745630000000000237e+00 3.879319999999999879e+00 9.310460000000000846e+00 5.239729999999999777e+00 5.783339999999999925e+00 5.523670000000000080e+00 5.997289999999999566e+00 5.445199999999999818e+00 9.767319999999999780e+00 8.961599999999999566e-01 6.979330000000000034e+00 1.188099000000000061e+01 4.076240000000000308e+00 8.551769999999999428e+00 4.192569999999999908e+00 1.390470000000000095e+00 8.316380000000000550e+00 7.282619999999999649e+00 4.047320000000000029e+00 8.650499999999999190e+00 1.412688999999999950e+01 1.775100000000000011e-01 8.985409999999999897e+00 1.527468999999999966e+01 4.524910000000000210e+00 7.205250000000000377e+00
3.824600000000000222e+00 4.081319999999999837e+00 5.759739999999999860e+00 6.619539999999999758e+00 4.175580000000000069e+00 2.997040000000000148e+00 3.915369999999999795e+00 6.727299999999999613e+00 2.427270000000000039e+00 9.332850000000000534e+00 4.918859999999999566e+00 5.229280000000000150e+00 9.090329999999999799e+00 3.303659999999999819e+00 8.517609999999999459e+00 1.926930000000000032e+00 2.921500000000000208e-01 6.641600000000000392e+00 6.064960000000000129e+00 2.294620000000000104e+00 7.383869999999999933e+00 1.189301999999999992e+01 6.146149999999999558e+00 7.971790000000000376e+00 4.990190000000000126e+00 4.820120000000000182e+00 9.790200000000000014e-01 1.236612000000000045e+01 4.918960000000000221e+00 3.778570000000000206e+00 5.474269999999999747e+00 2.426610000000000156e+00 4.560260000000000424e+00 9.062699999999999534e+00 3.985650000000000137e+00 2.681869999999999976e+00 6.608710000000000306e+00 -9.554999999999999605e-02 5.893150000000000333e+00 1.077887999999999913e+01 2.608280000000000154e+00 6.434230000000000338e+00 6.362180000000000391e+00 6.822600000000000442e+00 4.004310000000000258e+00 4.144120000000000026e+00 5.876680000000000348e+00 7.555320000000000036e+00 7.121159999999999712e+00 4.655689999999999884e+00 7.041459999999999830e+00 3.365159999999999929e+00 2.370899999999999785e+00 7.862669999999999604e+00 1.111312000000000033e+01 4.545040000000000191e+00 9.806739999999999569e+00 7.393430000000000391e+00 1.379979999999999984e+00 9.635289999999999466e+00
7.125549999999999606e+00 5.405230000000000423e+00 5.166890000000000427e+00 2.011169999999999902e+00 1.460029999999999939e+00 4.394500000000000073e-01 6.909379999999999633e+00 3.514870000000000161e+00 1.544030000000000014e+00 9.596249999999999503e+00 5.445109999999999673e+00 1.529989999999999961e+00 5.850270000000000081e+00 5.286839999999999762e+00 9.067370000000000374e+00 3.846849999999999881e+00 2.366049999999999986e+00 9.360620000000000829e+00 9.456810000000000827e+00 4.884529999999999816e+00 1.085800000000000054e+01 7.842360000000000220e+00 1.801690000000000014e+00 1.039380000000000059e+01 7.335950000000000415e+00 5.295589999999999797e+00 2.727799999999999869e+01 9.077999999999999403e+00 3.830259999999999998e+00 3.688210000000000210e+00 3.666980000000000128e+00 6.259700000000000264e-01 2.437380000000000102e+00 9.409580000000000055e+00 3.497599999999999820e+00 2.780219999999999914e+01 7.895069999999999588e+00 9.219500000000000473e-01 1.689589999999999925e+00 1.000647999999999982e+01 3.006489999999999885e+00 8.765470000000000539e+00 4.747939999999999827e+00 5.274879999999999569e+00 6.358319999999999972e+00 4.331050000000000288e+00 3.447500000000000009e-01 7.834249999999999936e+00 8.346080000000000609e+00 3.370999999999999996e+00 1.236100000000000065e+01 6.471029999999999838e+00 2.743250000000000188e+00 8.371769999999999712e+00 4.959810000000000052e+00 1.309080000000000021e+00 1.163739999999999952e+01 4.199340000000000295e+00 5.774079999999999657e+00 1.098900000000000077e+01
2.878719999999999946e+00 4.359460000000000335e+00 4.094009999999999927e+00 7.141569999999999752e+00 5.959060000000000024e+00 3.325000000000000178e+00 1.065239000000000047e+01 2.260899999999999910e+00 5.569919999999999760e+00 1.041510000000000069e+01 5.998359999999999914e+00 3.279310000000000169e+00 6.400190000000000268e+00 6.868319999999999759e+00 9.455209999999999226e+00 5.420490000000000030e+00 4.184199999999999697e+00 8.689399999999999125e+00 9.813679999999999737e+00 2.834300000000000153e-01 7.994060000000000166e+00 5.328000000000000291e+00 1.855280000000000040e+00 5.719809999999999839e+00 1.073889999999999922e+01 3.258000000000000007e+00 2.949440000000000062e+00 1.289142999999999972e+01 6.646889999999999965e+00 2.865130000000000177e+00 5.737829999999999764e+00 3.632639999999999869e+00 3.963979999999999837e+00 4.789450000000000429e+00 2.748200000000000087e-01 1.644400000000000084e+00 6.099709999999999965e+00 6.193410000000000082e+00 6.855690000000000062e+00 2.749800000000000022e+00 2.983249999999999957e+00 6.529429999999999623e+00 9.405599999999999739e+00 6.149200000000000443e+00 5.556400000000000006e+00 8.490429999999999922e+00 2.194269999999999943e+00 6.751590000000000202e+00 5.596799999999999997e+00 1.293290000000000051e+00 8.204079999999999373e+00 6.928329999999999878e+00 4.699119999999999742e+00 1.052940000000000076e+01 1.106682999999999950e+01 2.061500000000000110e+00 9.597400000000000375e+00 1.323542999999999914e+01 5.256260000000000154e+00 9.579549999999999343e+00
1.628319999999999990e+00 1.210990000000000011e+00 9.382070000000000576e+00 5.428609999999999935e+00 3.682350000000000012e+00 3.856160000000000032e+00 1.512880000000000003e+01 5.138959999999999972e+00 4.286800000000000388e+00 5.715530000000000221e+00 1.790400000000000047e-01 3.184959999999999791e+00 1.223625999999999969e+01 3.045640000000000125e+00 6.051110000000000433e+00 6.967360000000000220e+00 4.981530000000000236e+00 6.609110000000000262e+00 8.453780000000000072e+00 2.265239999999999920e+00 4.775489999999999569e+00 1.437579999999999991e+01 4.668849999999999945e+00 8.394550000000000622e+00 3.405269999999999797e+00 3.883509999999999796e+00 2.482429999999999914e+00 1.243820999999999977e+01 5.085239999999999760e+00 4.290079999999999671e+00 5.962749999999999773e+00 2.064960000000000129e+00 5.782879999999999576e+00 7.518189999999999706e+00 2.572789999999999910e+00 2.338360000000000216e+00 1.244529999999999959e+01 1.764049999999999896e+00 3.763520000000000199e+00 2.178100000000000147e+00 3.233470000000000066e+00 6.233660000000000423e+00 2.766989999999999839e+00 5.319000000000000117e-02 4.452359999999999651e+00 2.444139999999999979e+00 3.298449999999999882e+00 1.037439999999999962e+01 9.597929999999999851e+00 3.810929999999999929e+00 6.268099999999999561e+00 6.030990000000000073e+00 4.718950000000000422e+00 9.012079999999999202e+00 1.197020000000000017e+01 5.129699999999999704e+00 8.173989999999999867e+00 1.241324000000000005e+01 1.006850000000000023e+00 7.625140000000000029e+00
5.931619999999999671e+00 5.891210000000000058e+00 4.025280000000000413e+00 4.163000000000000256e+00 2.641169999999999796e+00 4.289939999999999642e+00 1.020148000000000010e+01 5.825059999999999683e+00 2.748260000000000147e+00 7.825840000000000352e+00 2.335690000000000044e+00 4.123549999999999827e+00 3.956630000000000091e+00 5.031679999999999708e+00 7.698339999999999961e+00 2.357940000000000147e+00 1.472839999999999927e+00 7.566950000000000287e+00 8.074870000000000658e+00 4.957329999999999792e+00 8.588060000000000471e+00 6.045510000000000161e+00 1.660519999999999996e+00 8.373170000000000002e+00 4.357680000000000220e+00 4.835810000000000386e+00 2.194640000000000146e+00 2.123520000000000074e+00 1.057460000000000067e+00 3.033920000000000172e+00 7.714959999999999596e+00 4.848239999999999661e+00 2.674729999999999830e+00 5.774009999999999643e+00 1.640530000000000044e+00 2.439239999999999853e+00 4.379710000000000214e+00 5.688499999999999668e-01 5.978460000000000107e+00 6.470430000000000348e+00 3.716159999999999908e+00 5.822600000000000442e+00 8.329259999999999664e+00 2.182199999999999973e-01 5.979190000000000005e+00 1.026234000000000002e+01 3.647539999999999782e+00 5.779569999999999652e+00 6.057540000000000369e+00 6.327189999999999870e+00 9.035259999999999181e+00 4.004450000000000287e+00 2.942130000000000134e+00 9.323140000000000427e+00 1.044008000000000003e+01 6.117980000000000196e+00 9.363550000000000040e+00 8.110369999999999635e+00 2.677109999999999879e+00 9.654719999999999303e+00
8.200350000000000250e+00 5.263690000000000424e+00 5.847889999999999588e+00 7.292930000000000135e+00 3.650900000000000034e+00 1.283090000000000064e+00 1.592370000000000063e+00 6.316399999999999793e-01 4.184200000000000141e-01 3.031149999999999789e+00 4.373210000000000264e+00 1.529260000000000064e+00 8.357419999999999405e+00 3.297670000000000101e+00 1.012069999999999936e+01 5.535809999999999675e+00 4.986800000000000122e-01 9.459500000000000242e+00 3.765320000000000000e+00 3.277249999999999996e+00 1.098789999999999978e+01 6.216549999999999798e+00 6.408350000000000435e+00 8.621460000000000790e+00 8.913090000000000401e+00 4.342889999999999695e+00 3.368879999999999875e+00 7.231720000000000148e+00 4.689259999999999984e+00 2.781480000000000175e+01 7.467579999999999885e+00 3.697999999999999898e-02 1.642800000000000038e+00 9.598530000000000229e+00 3.114739999999999842e+00 1.595999999999999919e-01 4.935060000000000002e+00 2.887280000000000069e+00 2.059569999999999901e+00 3.355750000000000011e+00 2.034079999999999888e+00 8.717810000000000059e+00 5.445050000000000168e+00 5.884750000000000369e+00 6.239239999999999675e+00 9.408569999999999212e+00 4.988039999999999807e+00 8.087410000000000210e+00 9.811360000000000525e+00 4.691279999999999895e+00 1.150350000000000072e+01 7.968910000000000160e+00 1.147070000000000034e+00 8.883259999999999934e+00 6.115090000000000359e+00 4.707220000000000404e+00 1.033629999999999960e+01 4.855699999999999683e+00 1.319679999999999964e+00 1.220870000000000033e+01
7.203979999999999606e+00 5.540989999999999860e+00 5.281179999999999986e+00 1.478890000000000038e+00 1.463589999999999947e+00 1.156800000000000050e-01 6.339920000000000222e+00 3.811399999999999899e+00 1.887070000000000025e+00 8.456559999999999633e+00 6.426409999999999734e+00 1.202849999999999975e+00 5.314079999999999693e+00 5.874990000000000379e+00 8.151590000000000558e+00 4.235859999999999737e+00 1.676879999999999926e+00 9.290889999999999205e+00 9.228149999999999409e+00 5.587930000000000064e+00 1.080710000000000015e+01 7.847489999999999633e+00 2.324489999999999945e+00 1.074130000000000074e+01 4.220939999999999692e+00 3.083799999999999875e-01 2.770919999999999916e+01 8.171120000000000161e+00 3.891519999999999868e+00 3.794080000000000119e+00 2.399919999999999831e+00 2.801000000000000018e-02 2.722550000000000026e+00 8.615040000000000475e+00 3.372729999999999784e+00 2.821120000000000161e+01 7.032939999999999969e+00 1.134810000000000096e+00 1.955829999999999957e+00 9.758789999999999409e+00 3.533430000000000071e+00 9.162100000000000577e+00 4.525610000000000355e+00 5.204170000000000407e+00 5.640920000000000378e+00 7.962559999999999860e+00 6.250359999999999694e+00 7.843110000000000248e+00 8.118299999999999628e+00 4.158059999999999867e+00 1.266799999999999926e+01 6.435369999999999813e+00 3.126630000000000020e+00 8.479290000000000660e+00 4.714229999999999698e+00 1.386060000000000070e+00 1.180840000000000067e+01 4.268679999999999808e+00 6.280050000000000132e+00 1.050130000000000052e+01
4.004929999999999879e+00 4.355990000000000251e+00 9.793870000000000076e+00 8.569179999999999353e+00 4.581059999999999910e+00 3.778849999999999820e+00 2.501591000000000165e+01 2.707700000000000107e-01 4.520270000000000010e+00 6.234149999999999636e+00 1.660719999999999974e+00 3.758490000000000109e+00 2.684500999999999848e+01 3.513279999999999959e+00 4.506300000000000416e+00 7.364049999999999763e+00 4.198479999999999990e+00 8.028829999999999245e+00 1.229090000000000060e+01 5.425080000000000346e+00 6.017509999999999692e+00 2.849639999999999951e+00 2.115009999999999835e+00 7.450859999999999594e+00 7.132259999999999600e+00 3.480710000000000193e+00 2.013430000000000053e+00 2.624311000000000149e+01 6.002749999999999808e+00 3.829940000000000122e+00 1.028574000000000055e+01 3.527779999999999916e+00 6.098609999999999864e+00 1.075763000000000069e+01 5.631579999999999586e+00 2.887729999999999908e+00 2.627430999999999983e+01 1.261030000000000095e+00 2.404589999999999783e+00 3.912479999999999958e+00 4.040460000000000385e+00 5.504010000000000069e+00 4.834150000000000169e+00 2.172999999999999932e-01 5.848489999999999966e+00 5.471709999999999852e+00 2.411700000000000177e+00 8.908300000000000551e+00 7.888659999999999783e+00 2.354810000000000070e+00 5.892489999999999561e+00 2.839630000000000098e+00 -1.441099999999999881e-01 9.483670000000000044e+00 2.580881000000000114e+01 1.914539999999999909e+00 6.504859999999999864e+00 2.728970999999999947e+01 3.405590000000000117e+00 9.509100000000000108e+00
4.670010000000000439e+00 1.114409999999999901e+00 2.647600000000000176e+00 6.209889999999999688e+00 5.370549999999999713e+00 5.196749999999999758e+00 8.463039999999999452e+00 1.580100000000000060e+00 4.055310000000000414e+00 1.226526999999999923e+01 3.390919999999999934e+00 3.474320000000000075e+00 4.018449999999999633e+00 1.009819999999999940e+00 8.520039999999999836e+00 4.578890000000000349e+00 6.052780000000000271e+00 9.034649999999999181e+00 8.374060000000000059e+00 2.626549999999999940e+00 8.419159999999999755e+00 1.022053999999999974e+01 4.413039999999999630e+00 6.258479999999999599e+00 6.421689999999999898e+00 5.578009999999999913e+00 2.699069999999999858e+00 3.133319999999999883e+00 3.054759999999999920e+00 1.825669999999999904e+00 6.867880000000000429e+00 4.320100000000000051e-01 2.560760000000000147e+00 1.111621000000000059e+01 1.321919999999999984e+00 3.752369999999999983e+00 4.798129999999999562e+00 1.054580000000000073e+00 6.105139999999999567e+00 7.441679999999999851e+00 3.167110000000000092e+00 6.024580000000000268e+00 1.162539999999999907e+00 4.419199999999999795e-01 6.569989999999999775e+00 1.286157000000000039e+01 5.198400000000000354e+00 5.152099999999999902e+00 5.901040000000000063e+00 2.522670000000000190e+00 9.381510000000000460e+00 2.777400000000000091e+00 3.069399999999999906e-01 1.074479999999999968e+01 1.062349999999999994e+01 4.080689999999999706e+00 8.624729999999999563e+00 9.741089999999999804e+00 3.113699999999999801e-01 8.935779999999999390e+00
6.318880000000000052e+00 4.988050000000000317e+00 5.363800000000000345e+00 8.348200000000000287e+00 3.945100000000000051e+00 1.863809999999999967e+00 2.186560000000000059e+00 8.190100000000000158e-01 1.856710000000000083e+00 3.944550000000000001e+00 3.787150000000000016e+00 1.995980000000000087e+00 7.200479999999999769e+00 3.420100000000000140e+00 9.316050000000000608e+00 5.217500000000000249e+00 1.767299999999999982e-01 8.557969999999999189e+00 3.630030000000000090e+00 4.021279999999999966e+00 9.655030000000000001e+00 1.185210000000000097e+00 8.602100000000000302e-01 9.156330000000000524e+00 1.731289999999999996e+00 2.603990000000000027e+00 3.796580000000000066e+00 8.443329999999999558e+00 6.502570000000000405e+00 2.105220000000000091e+00 4.072099999999999831e+00 6.382229999999999848e+00 1.596719999999999917e+00 2.172610000000000152e+00 2.731450000000000156e+00 7.925000000000000100e-02 6.287289999999999601e+00 2.813919999999999977e+00 2.528599999999999959e+00 3.373979999999999979e+00 1.805479999999999974e+00 7.925370000000000026e+00 5.545420000000000016e+00 5.256960000000000299e+00 8.105430000000000135e+00 9.181530000000000413e+00 4.796079999999999899e+00 7.273279999999999745e+00 9.432999999999999829e+00 2.793159999999999865e+00 1.084009999999999962e+01 7.322549999999999670e+00 1.694280000000000008e+00 7.207860000000000156e+00 6.818640000000000256e+00 2.493000000000000077e-02 1.072610000000000063e+01 5.447320000000000384e+00 2.740089999999999915e+00 1.124349999999999916e+01
3.264780000000000015e+00 2.666240000000000165e+00 3.523629999999999818e+00 6.803510000000000169e+00 4.894280000000000186e+00 3.064470000000000027e+00 1.056202000000000041e+01 2.691510000000000069e+00 6.312330000000000219e+00 1.045608000000000004e+01 3.960399999999999920e+00 3.298849999999999838e+00 7.620230000000000281e+00 5.967039999999999900e+00 8.375949999999999562e+00 4.645929999999999893e+00 6.207519999999999705e+00 9.748319999999999652e+00 8.121589999999999421e+00 2.408790000000000209e+00 9.357310000000000016e+00 5.921020000000000394e+00 9.670400000000000107e-01 5.683869999999999756e+00 1.913280000000000092e+00 5.258699999999999486e-01 2.292499999999999982e+00 1.275366000000000000e+01 4.955930000000000391e+00 2.320359999999999978e+00 5.768250000000000099e+00 2.104859999999999953e+00 3.384339999999999904e+00 8.724959999999999383e+00 4.294310000000000294e+00 1.324810000000000043e+00 1.532869999999999955e+00 8.136999999999999789e-02 7.328780000000000072e+00 2.524430000000000174e+00 4.001290000000000013e+00 5.921610000000000262e+00 7.938380000000000436e+00 5.275079999999999991e+00 5.234300000000000175e+00 8.398009999999999309e+00 1.042699999999999960e+00 6.246920000000000250e+00 5.497010000000000396e+00 1.735530000000000017e+00 8.010089999999999932e+00 6.893930000000000113e+00 5.665099999999999802e+00 1.098990000000000045e+01 9.608259999999999579e+00 4.296289999999999942e+00 9.133290000000000575e+00 9.004350000000000520e+00 2.580100000000000171e-01 1.103930000000000078e+01
5.340049999999999741e+00 5.634859999999999758e+00 3.778640000000000221e+00 8.792500000000000426e+00 5.020159999999999734e+00 3.544059999999999988e+00 8.684699999999999420e+00 2.579600000000000115e+00 8.725630000000000663e+00 6.951159999999999783e+00 1.598160000000000025e+00 3.455249999999999932e+00 5.493149999999999977e+00 5.961859999999999715e+00 7.896359999999999602e+00 5.327580000000000204e+00 2.629329999999999945e+00 6.731049999999999756e+00 1.143556000000000061e+01 5.670180000000000220e+00 5.490370000000000417e+00 1.200935999999999915e+01 2.815589999999999815e+00 8.697269999999999612e+00 4.776589999999999669e+00 3.141849999999999810e+00 4.187689999999999912e+00 6.747729999999999784e+00 6.295049999999999812e+00 2.027130000000000098e+00 8.248810000000000642e+00 3.137490000000000112e+00 1.788010000000000099e+00 1.163935999999999993e+01 6.055329999999999657e+00 2.980890000000000040e+00 9.088430000000000675e+00 5.243290000000000006e+00 6.124699999999999811e+00 6.338399999999999590e-01 8.402999999999999359e-02 5.628230000000000288e+00 7.614630000000000010e+00 1.360619999999999941e+00 6.200840000000000352e+00 1.033749000000000073e+01 3.924160000000000093e+00 1.029989999999999917e+01 3.399709999999999788e+00 9.528799999999999493e-01 8.371050000000000324e+00 5.367189999999999905e+00 3.867049999999999876e+00 9.112970000000000681e+00 1.027155999999999914e+01 5.044899999999999940e-01 9.407479999999999620e+00 1.297875999999999941e+01 4.297670000000000101e+00 6.879209999999999603e+00
5.935069999999999624e+00 2.144239999999999924e+00 4.158570000000000100e+00 7.858389999999999986e+00 6.350120000000000431e+00 4.285300000000000331e+00 1.784750000000000059e+00 2.661210000000000075e+00 4.501229999999999620e+00 4.152529999999999610e+00 6.352970000000000006e+00 3.968560000000000088e+00 7.386339999999999684e+00 1.214360000000000106e+00 8.133380000000000720e+00 1.013574000000000019e+01 4.533529999999999838e+00 8.471389999999999532e+00 3.697550000000000114e+00 9.296299999999999564e-01 7.558709999999999596e+00 5.711470000000000269e+00 4.699770000000000003e+00 7.994839999999999947e+00 3.802880000000000038e+00 1.202990000000000004e+00 2.749800000000000022e+00 6.027330000000000076e+00 5.100920000000000343e+00 2.812240000000000073e+00 7.806490000000000151e+00 1.575339999999999963e+00 3.057080000000000020e+00 1.006673999999999936e+01 5.033380000000000187e+00 3.031569999999999876e+00 1.911329999999999973e+00 1.616700000000000081e-01 5.819399999999999906e+00 3.701020000000000199e+00 4.020660000000000345e+00 6.181840000000000224e+00 5.926249999999999574e+00 3.708000000000000185e-02 5.960390000000000299e+00 7.542150000000000354e+00 3.734290000000000109e+00 6.154329999999999856e+00 1.625269999999999992e+00 1.950960000000000027e+00 8.887109999999999843e+00 3.900659999999999794e+00 6.169609999999999594e+00 9.423690000000000566e+00 5.548610000000000042e+00 2.200270000000000170e+00 9.620499999999999829e+00 7.861119999999999663e+00 6.228659999999999641e+00 9.190939999999999444e+00
5.198699999999999655e+00 6.536459999999999937e+00 4.066760000000000375e+00 8.988479999999999137e+00 4.624349999999999739e+00 3.674910000000000121e+00 8.181409999999999627e+00 -8.773999999999999855e-02 5.074900000000000411e+00 1.274993000000000087e+01 3.930919999999999970e+00 3.348809999999999842e+00 1.243182999999999971e+01 2.564859999999999918e+00 7.906889999999999752e+00 6.274969999999999715e+00 6.131359999999999921e+00 8.178399999999999892e+00 8.272529999999999717e+00 2.630840000000000067e+00 8.122130000000000294e+00 1.030838999999999928e+01 5.505250000000000199e+00 8.199719999999999231e+00 6.459150000000000169e+00 4.229420000000000179e+00 3.007150000000000212e+00 2.918779999999999930e+00 2.042400000000000215e+00 3.131749999999999812e+00 1.371503000000000050e+01 6.514300000000000423e+00 2.938200000000000145e+00 1.060879000000000083e+01 3.008049999999999891e+00 2.202430000000000110e+00 9.360860000000000625e+00 6.550650000000000084e+00 5.335919999999999774e+00 8.096750000000000114e+00 2.476599999999999913e+00 5.636660000000000004e+00 4.071100000000000274e-01 1.162399999999999961e-01 6.747760000000000424e+00 1.262883000000000067e+01 4.515930000000000000e+00 6.133090000000000153e+00 3.452560000000000073e+00 1.412330000000000085e+00 8.765769999999999840e+00 5.987280000000000157e+00 4.016399999999999970e+00 9.290279999999999205e+00 1.037036999999999942e+01 3.278410000000000046e+00 9.716079999999999828e+00 8.356870000000000687e+00 -3.099000000000000019e-02 8.904220000000000468e+00