-6.540961789000000692e+01
-6.671948177999999530e+01
-6.743143886000000009e+01
-6.504630901999999537e+01
-6.635324538000000416e+01
-6.710959343999999760e+01
-6.470789539000000445e+01
-6.587144718999999782e+01
-6.623823928000000194e+01
-6.890911334999999838e+01
-6.739337170000000299e+01
-6.569597557999999538e+01
-6.432708829999999978e+01
-6.461589469000000463e+01
-6.723452946000000452e+01
-6.549840584000000376e+01
-6.657276134999999329e+01
-6.899398327999999481e+01
-6.649006581000000438e+01
-6.603425887999999588e+01
-6.527527437999999904e+01
-6.578617006999999717e+01
-6.574025122000000465e+01
-6.656591328999999746e+01
-6.545897449999999651e+01
-6.550020893999999316e+01
-6.720570809999999540e+01
-6.642676265000000058e+01
-6.502483884999999475e+01
-6.556866436999999337e+01
-6.565220225000000198e+01
-6.613957410999999809e+01
-6.579578997000000129e+01
-6.538622933000000614e+01
-6.500539589999999635e+01
-6.460964751999999578e+01
-6.651185531999999512e+01
-6.509848866999999473e+01
-6.613109918000000675e+01
-6.690771888999999817e+01
-6.457186987999999417e+01
-6.673240151000000253e+01
-6.689499786000000370e+01
-6.450931796999999790e+01
-6.664650752999999384e+01
-6.577580829999999423e+01
-6.531243542999999363e+01
-6.739311220000000446e+01
-6.691509671000000026e+01
-6.592322575999999401e+01
-6.620086675999999670e+01
-6.514144686000000206e+01
-6.202223097000000251e+01
-6.567769556999999736e+01
-6.462349867000000359e+01
-6.664786940999999842e+01
-6.629508869999999376e+01
-6.602741073999999344e+01
-6.609424803999999654e+01
-6.746828625999999929e+01
-6.589184978000000115e+01
-6.597009119999999882e+01
-6.813267790000000446e+01
-6.597110591000000568e+01
-6.764024138999999991e+01
-6.506083934000000113e+01
-6.423952855000000284e+01
-6.689037295999999344e+01
-6.707788687999999411e+01
-6.607692914999999800e+01
-6.658691484000000571e+01
-6.558901704000000166e+01
-6.539210850000000619e+01
-6.595920277999999826e+01
-6.567323503999999446e+01
-6.762229145000000585e+01
-6.733010548999999401e+01
-6.495506566999999620e+01
-6.761197477000000333e+01
-6.554904430999999931e+01
-6.658744454000000701e+01
-6.679450778000000355e+01
-6.609743914000000586e+01
-6.609618140999999980e+01
-6.783223304999999925e+01
-6.417719289999999432e+01
-6.623197779999999568e+01
-6.773972627999999929e+01
-6.606067527000000439e+01
-6.480915856000000019e+01
-6.516303354000000070e+01
-6.613953886999999554e+01
-6.445368290999999772e+01
-6.728658457999999598e+01
-6.798109227999999860e+01
-6.594147528999999963e+01
-6.469383562999999526e+01
-6.614798681000000613e+01
-6.346936488000000054e+01
-6.573762734000000307e+01
