1.137999999999999949e-02 2.330080000000000151e+00 1.577769999999999895e+00 -1.951969999999999983e+00 5.838829999999999742e+00 1.579499999999999904e+00 4.048860000000000348e+00 2.317899999999999849e+00 1.569050000000000056e+00 2.082370000000000054e+00 5.842579999999999885e+00 1.576710000000000056e+00 7.968410000000000437e+00 -5.242999999999999744e-02 5.772960000000000313e+00 6.003459999999999575e+00 3.470530000000000115e+00 5.768779999999999575e+00 3.944789999999999797e+00 -5.360999999999999793e-02 5.772890000000000299e+00 1.975519999999999943e+00 3.466110000000000024e+00 5.772439999999999571e+00 2.037710000000000132e+00 1.173650000000000082e+00 2.631200000000000205e-01 6.241000000000000020e-02 4.690360000000000085e+00 2.514100000000000223e-01 6.056400000000000006e+00 1.168239999999999945e+00 2.536700000000000066e-01 4.096260000000000012e+00 4.687210000000000321e+00 2.594400000000000039e-01 -3.729999999999999982e-02 2.311360000000000081e+00 4.086669999999999803e+00 -2.005310000000000148e+00 5.830829999999999735e+00 4.087040000000000006e+00 4.000429999999999708e+00 2.317610000000000170e+00 4.086179999999999701e+00 2.020410000000000039e+00 5.833109999999999573e+00 4.081570000000000142e+00 1.924090000000000078e+00 1.095220000000000082e+00 7.166970000000000063e+00 -3.620999999999999913e-02 4.620809999999999640e+00 7.168730000000000047e+00 5.959970000000000212e+00 1.097760000000000069e+00 7.169139999999999624e+00 3.996080000000000076e+00 4.610380000000000145e+00 7.174900000000000055e+00
1.043999999999999963e-02 2.326200000000000045e+00 1.568880000000000052e+00 -1.950530000000000097e+00 5.837399999999999700e+00 1.585970000000000102e+00 4.045910000000000117e+00 2.326989999999999892e+00 1.564400000000000013e+00 2.080789999999999917e+00 5.845579999999999998e+00 1.584359999999999991e+00 7.968869999999999898e+00 -5.179000000000000270e-02 5.777000000000000135e+00 6.004419999999999646e+00 3.467210000000000125e+00 5.764129999999999754e+00 1.136999999999999990e-02 6.979499999999999815e+00 5.770870000000000388e+00 1.976550000000000029e+00 3.463229999999999809e+00 5.778509999999999813e+00 2.041069999999999940e+00 1.172770000000000090e+00 2.635899999999999910e-01 5.922000000000000181e-02 4.693319999999999936e+00 2.492600000000000093e-01 6.060220000000000162e+00 1.167729999999999935e+00 2.510200000000000209e-01 4.094350000000000378e+00 4.689460000000000406e+00 2.636299999999999755e-01 -3.327000000000000096e-02 2.305130000000000123e+00 4.088160000000000238e+00 -2.006390000000000118e+00 5.828240000000000087e+00 4.088180000000000369e+00 3.993339999999999890e+00 2.316689999999999916e+00 4.082559999999999967e+00 2.027130000000000098e+00 5.827309999999999768e+00 4.081349999999999589e+00 1.924739999999999895e+00 1.095920000000000005e+00 7.167869999999999742e+00 -3.855000000000000093e-02 4.622399999999999842e+00 7.167580000000000062e+00 5.961450000000000138e+00 1.108190000000000008e+00 7.164390000000000036e+00 3.993090000000000028e+00 4.612280000000000157e+00 7.175419999999999909e+00
9.530000000000000276e-03 2.322360000000000202e+00 1.559819999999999984e+00 -1.949079999999999924e+00 5.836000000000000298e+00 1.592219999999999969e+00 4.042980000000000018e+00 2.336110000000000131e+00 1.559609999999999941e+00 2.079200000000000159e+00 5.848609999999999864e+00 1.591790000000000038e+00 7.969339999999999868e+00 -5.117000000000000021e-02 5.781170000000000364e+00 6.005379999999999718e+00 3.463870000000000005e+00 5.759599999999999831e+00 1.191000000000000045e-02 6.976280000000000037e+00 5.768959999999999866e+00 1.977579999999999893e+00 3.460319999999999840e+00 5.784699999999999953e+00 2.044369999999999798e+00 1.171820000000000084e+00 2.641600000000000059e-01 5.603999999999999954e-02 4.696220000000000283e+00 2.472600000000000076e-01 6.064040000000000319e+00 1.167159999999999975e+00 2.484899999999999887e-01 4.092430000000000234e+00 4.691670000000000229e+00 2.679099999999999815e-01 -2.923999999999999863e-02 2.298900000000000166e+00 4.089750000000000441e+00 -2.007470000000000088e+00 5.825639999999999930e+00 4.089470000000000383e+00 3.986260000000000137e+00 2.315760000000000041e+00 4.079049999999999621e+00 2.033850000000000158e+00 5.821500000000000341e+00 4.081310000000000215e+00 1.925419999999999909e+00 1.096670000000000034e+00 7.168619999999999770e+00 -4.087999999999999967e-02 4.624030000000000307e+00 7.166269999999999918e+00 5.962920000000000442e+00 1.118649999999999922e+00 7.159489999999999910e+00 3.990110000000000046e+00 4.614230000000000054e+00 7.175769999999999982e+00
8.630000000000000518e-03 2.318569999999999798e+00 1.550629999999999953e+00 -1.947619999999999907e+00 5.834660000000000402e+00 1.598240000000000105e+00 4.040079999999999671e+00 2.345260000000000122e+00 1.554689999999999905e+00 2.077599999999999891e+00 5.851670000000000371e+00 1.598959999999999937e+00 7.969789999999999708e+00 -5.057999999999999996e-02 5.785449999999999982e+00 6.006330000000000169e+00 3.460519999999999818e+00 5.755180000000000184e+00 1.244999999999999926e-02 6.973060000000000258e+00 5.767179999999999751e+00 1.978590000000000071e+00 3.457399999999999807e+00 5.791000000000000369e+00 2.047600000000000087e+00 1.170789999999999997e+00 2.648400000000000198e-01 5.285999999999999727e-02 4.699069999999999858e+00 2.454199999999999993e-01 6.067820000000000213e+00 1.166530000000000067e+00 2.460900000000000032e-01 4.090480000000000338e+00 4.693870000000000431e+00 2.722899999999999765e-01 -2.520000000000000018e-02 2.292670000000000208e+00 4.091400000000000148e+00 -2.008539999999999992e+00 5.823050000000000281e+00 4.090939999999999799e+00 3.979200000000000070e+00 2.314810000000000034e+00 4.075650000000000439e+00 2.040560000000000151e+00 5.815690000000000026e+00 4.081489999999999618e+00 1.926139999999999963e+00 1.097439999999999971e+00 7.169220000000000148e+00 -4.318000000000000310e-02 4.625689999999999635e+00 7.164799999999999613e+00 5.964380000000000237e+00 1.129099999999999993e+00 7.154449999999999754e+00 3.987159999999999815e+00 4.616229999999999833e+00 7.175939999999999763e+00
7.760000000000000404e-03 2.314839999999999787e+00 1.541339999999999932e+00 -1.946150000000000047e+00 5.833359999999999879e+00 1.604009999999999936e+00 4.037209999999999965e+00 2.354400000000000048e+00 1.549649999999999972e+00 2.075990000000000002e+00 5.854750000000000121e+00 1.605850000000000000e+00 7.970229999999999926e+00 -5.002000000000000196e-02 5.789850000000000385e+00 6.007259999999999600e+00 3.457149999999999945e+00 5.750869999999999926e+00 1.298000000000000022e-02 6.969850000000000101e+00 5.765509999999999913e+00 1.979589999999999961e+00 3.454450000000000021e+00 5.797399999999999665e+00 2.050769999999999982e+00 1.169659999999999922e+00 2.656000000000000028e-01 4.972000000000000031e-02 4.701870000000000438e+00 2.437499999999999944e-01 6.071530000000000094e+00 1.165839999999999987e+00 2.438099999999999989e-01 4.088530000000000442e+00 4.696060000000000123e+00 2.767600000000000060e-01 -2.118000000000000091e-02 2.286470000000000002e+00 4.093049999999999855e+00 -2.009590000000000209e+00 5.820439999999999614e+00 4.092600000000000016e+00 3.972170000000000201e+00 2.313829999999999831e+00 4.072359999999999758e+00 2.047250000000000014e+00 5.809879999999999711e+00 4.081909999999999705e+00 1.926900000000000057e+00 1.098240000000000105e+00 7.169679999999999609e+00 -4.546999999999999653e-02 4.627390000000000114e+00 7.163179999999999659e+00 5.965830000000000410e+00 1.139539999999999997e+00 7.149280000000000079e+00 3.984239999999999782e+00 4.618280000000000385e+00 7.175939999999999763e+00
6.930000000000000396e-03 2.311170000000000169e+00 1.531989999999999963e+00 -1.944660000000000055e+00 5.832099999999999618e+00 1.609529999999999905e+00 4.034390000000000143e+00 2.363539999999999974e+00 1.544510000000000050e+00 2.074349999999999916e+00 5.857859999999999623e+00 1.612430000000000030e+00 7.970670000000000144e+00 -4.948999999999999927e-02 5.794349999999999667e+00 6.008169999999999789e+00 3.453800000000000203e+00 5.746649999999999814e+00 1.352000000000000077e-02 6.966649999999999565e+00 5.763959999999999972e+00 1.980560000000000098e+00 3.451480000000000103e+00 5.803899999999999615e+00 2.053869999999999862e+00 1.168430000000000080e+00 2.664500000000000202e-01 4.660000000000000253e-02 4.704629999999999868e+00 2.422600000000000031e-01 6.075160000000000338e+00 1.165089999999999959e+00 2.416600000000000137e-01 4.086560000000000414e+00 4.698279999999999568e+00 2.812899999999999845e-01 -1.716000000000000164e-02 2.280289999999999928e+00 4.094689999999999941e+00 -2.010629999999999917e+00 5.817840000000000344e+00 4.094459999999999766e+00 3.965180000000000149e+00 2.312819999999999876e+00 4.069189999999999863e+00 2.053910000000000124e+00 5.804079999999999906e+00 4.082600000000000229e+00 1.927720000000000100e+00 1.099059999999999926e+00 7.170010000000000439e+00 -4.773000000000000159e-02 4.629109999999999836e+00 7.161419999999999675e+00 5.967229999999999812e+00 1.149920000000000053e+00 7.144009999999999749e+00 3.981370000000000076e+00 4.620379999999999932e+00 7.175769999999999982e+00
6.139999999999999625e-03 2.307580000000000187e+00 1.522599999999999953e+00 -1.943149999999999933e+00 5.830899999999999750e+00 1.614789999999999948e+00 4.031620000000000203e+00 2.372650000000000148e+00 1.539260000000000073e+00 2.072680000000000078e+00 5.860990000000000144e+00 1.618689999999999962e+00 7.971090000000000231e+00 -4.898000000000000270e-02 5.798960000000000115e+00 6.009059999999999846e+00 3.450460000000000083e+00 5.742519999999999847e+00 1.405999999999999958e-02 6.963479999999999670e+00 5.762520000000000309e+00 1.981489999999999974e+00 3.448500000000000121e+00 5.810489999999999711e+00 2.056909999999999794e+00 1.167089999999999961e+00 2.673699999999999966e-01 4.352999999999999925e-02 4.707329999999999792e+00 2.409600000000000075e-01 6.078680000000000305e+00 1.164260000000000073e+00 2.396300000000000097e-01 4.084579999999999878e+00 4.700540000000000163e+00 2.858700000000000130e-01 -1.315999999999999982e-02 2.274140000000000050e+00 4.096260000000000012e+00 -2.011649999999999938e+00 5.815220000000000056e+00 4.096529999999999561e+00 3.958239999999999981e+00 2.311770000000000103e+00 4.066119999999999735e+00 2.060529999999999973e+00 5.798289999999999722e+00 4.083590000000000053e+00 1.928590000000000027e+00 1.099879999999999969e+00 7.170219999999999594e+00 -4.997999999999999665e-02 4.630860000000000198e+00 7.159519999999999662e+00 5.968600000000000350e+00 1.160239999999999938e+00 7.138650000000000162e+00 3.978559999999999874e+00 4.622519999999999740e+00 7.175430000000000419e+00
5.389999999999999826e-03 2.304079999999999906e+00 1.513200000000000101e+00 -1.941629999999999967e+00 5.829760000000000275e+00 1.619760000000000089e+00 4.028909999999999769e+00 2.381730000000000125e+00 1.533940000000000081e+00 2.070980000000000043e+00 5.864150000000000418e+00 1.624610000000000110e+00 7.971510000000000318e+00 -4.848999999999999838e-02 5.803670000000000329e+00 6.009929999999999772e+00 3.447140000000000093e+00 5.738459999999999894e+00 1.461999999999999932e-02 6.960329999999999906e+00 5.761190000000000033e+00 1.982390000000000096e+00 3.445500000000000007e+00 5.817160000000000331e+00 2.059870000000000090e+00 1.165629999999999944e+00 2.683599999999999874e-01 4.052000000000000046e-02 4.709979999999999833e+00 2.398500000000000076e-01 6.082060000000000244e+00 1.163359999999999950e+00 2.377299999999999969e-01 4.082600000000000229e+00 4.702849999999999753e+00 2.904999999999999805e-01 -9.180000000000000659e-03 2.268029999999999990e+00 4.097749999999999559e+00 -2.012649999999999828e+00 5.812599999999999767e+00 4.098840000000000039e+00 3.951369999999999827e+00 2.310690000000000133e+00 4.063150000000000261e+00 2.067099999999999937e+00 5.792519999999999669e+00 4.084900000000000198e+00 1.929519999999999902e+00 1.100700000000000012e+00 7.170320000000000249e+00 -5.220000000000000334e-02 4.632640000000000313e+00 7.157490000000000130e+00 5.969920000000000115e+00 1.170460000000000056e+00 7.133219999999999672e+00 3.975820000000000132e+00 4.624710000000000321e+00 7.174940000000000317e+00
4.689999999999999725e-03 2.300670000000000215e+00 1.503830000000000000e+00 -1.940099999999999936e+00 5.828660000000000174e+00 1.624460000000000015e+00 4.026259999999999728e+00 2.390750000000000153e+00 1.528540000000000010e+00 2.069240000000000190e+00 5.867329999999999934e+00 1.630179999999999962e+00 7.971910000000000274e+00 -4.802000000000000018e-02 5.808469999999999800e+00 6.010769999999999946e+00 3.443859999999999921e+00 5.734449999999999825e+00 1.519000000000000038e-02 6.957209999999999894e+00 5.759949999999999903e+00 1.983249999999999957e+00 3.442489999999999828e+00 5.823900000000000077e+00 2.062759999999999927e+00 1.164050000000000029e+00 2.694099999999999828e-01 3.756999999999999923e-02 4.712589999999999613e+00 2.389300000000000035e-01 6.085289999999999644e+00 1.162379999999999969e+00 2.359400000000000108e-01 4.080610000000000070e+00 4.705239999999999867e+00 2.951599999999999779e-01 -5.210000000000000221e-03 2.261960000000000193e+00 4.099120000000000097e+00 -2.013630000000000031e+00 5.809960000000000235e+00 4.101370000000000182e+00 3.944560000000000066e+00 2.309559999999999835e+00 4.060290000000000177e+00 2.073620000000000019e+00 5.786760000000000126e+00 4.086549999999999905e+00 1.930520000000000014e+00 1.101509999999999989e+00 7.170320000000000249e+00 -5.439000000000000085e-02 4.634450000000000180e+00 7.155330000000000190e+00 5.971169999999999867e+00 1.180560000000000054e+00 7.127729999999999677e+00 3.973160000000000025e+00 4.626940000000000275e+00 7.174280000000000435e+00
4.049999999999999781e-03 2.297359999999999847e+00 1.494490000000000096e+00 -1.938549999999999995e+00 5.827630000000000088e+00 1.628870000000000040e+00 4.023679999999999701e+00 2.399709999999999788e+00 1.523099999999999898e+00 2.067450000000000010e+00 5.870540000000000092e+00 1.635380000000000056e+00 -8.773000000000000242e-02 -4.755999999999999811e-02 5.813360000000000305e+00 6.011580000000000368e+00 3.440630000000000077e+00 5.730489999999999640e+00 1.578999999999999848e-02 6.954119999999999635e+00 5.758820000000000050e+00 1.984059999999999935e+00 3.439470000000000027e+00 5.830720000000000347e+00 2.065589999999999815e+00 1.162330000000000085e+00 2.705099999999999727e-01 3.468000000000000249e-02 4.715150000000000396e+00 2.382199999999999873e-01 6.088330000000000020e+00 1.161310000000000064e+00 2.342599999999999960e-01 4.078619999999999912e+00 4.707729999999999748e+00 2.998299999999999854e-01 -1.270000000000000078e-03 2.255930000000000213e+00 4.100329999999999586e+00 -2.014590000000000103e+00 5.807310000000000194e+00 4.104160000000000252e+00 3.937840000000000007e+00 2.308380000000000098e+00 4.057509999999999728e+00 2.080090000000000217e+00 5.781019999999999825e+00 4.088540000000000063e+00 1.931599999999999984e+00 1.102309999999999901e+00 7.170230000000000103e+00 -5.655000000000000304e-02 4.636289999999999800e+00 7.153050000000000352e+00 5.972349999999999604e+00 1.190520000000000023e+00 7.122200000000000308e+00 3.970579999999999998e+00 4.629209999999999603e+00 7.173479999999999634e+00
3.480000000000000020e-03 2.294160000000000199e+00 1.485230000000000050e+00 -1.936979999999999924e+00 5.826649999999999885e+00 1.633000000000000007e+00 4.021180000000000199e+00 2.408599999999999852e+00 1.517609999999999904e+00 2.065599999999999881e+00 5.873789999999999623e+00 1.640220000000000011e+00 -8.735999999999999321e-02 -4.712000000000000216e-02 5.818340000000000067e+00 6.012349999999999639e+00 3.437440000000000051e+00 5.726549999999999585e+00 1.641000000000000097e-02 6.951080000000000148e+00 5.757769999999999833e+00 1.984809999999999963e+00 3.436440000000000161e+00 5.837600000000000122e+00 2.068350000000000133e+00 1.160469999999999891e+00 2.716399999999999926e-01 3.187999999999999862e-02 4.717660000000000409e+00 2.377100000000000046e-01 6.091169999999999973e+00 1.160160000000000080e+00 2.326900000000000079e-01 4.076629999999999754e+00 4.710340000000000416e+00 3.044999999999999929e-01 2.650000000000000012e-03 2.249960000000000182e+00 4.101359999999999673e+00 -2.015519999999999978e+00 5.804649999999999643e+00 4.107190000000000119e+00 3.931200000000000028e+00 2.307150000000000034e+00 4.054820000000000313e+00 2.086489999999999956e+00 5.775290000000000035e+00 4.090900000000000425e+00 1.932749999999999968e+00 1.103080000000000060e+00 7.170079999999999565e+00 -5.868999999999999911e-02 4.638150000000000439e+00 7.150669999999999860e+00 5.973449999999999704e+00 1.200320000000000054e+00 7.116649999999999920e+00 3.968100000000000183e+00 4.631520000000000081e+00 7.172530000000000072e+00
2.980000000000000010e-03 2.291069999999999940e+00 1.476059999999999928e+00 -1.935400000000000009e+00 5.825739999999999696e+00 1.636849999999999916e+00 4.018760000000000332e+00 2.417400000000000215e+00 1.512100000000000000e+00 2.063699999999999868e+00 5.877060000000000173e+00 1.644689999999999985e+00 -8.699999999999999400e-02 -4.667999999999999927e-02 5.823400000000000354e+00 6.013090000000000046e+00 3.434330000000000105e+00 5.722620000000000040e+00 1.705999999999999878e-02 6.948080000000000034e+00 5.756800000000000139e+00 1.985510000000000108e+00 3.433390000000000164e+00 5.844540000000000290e+00 2.071039999999999992e+00 1.158470000000000111e+00 2.727999999999999869e-01 2.915999999999999842e-02 4.720119999999999649e+00 2.374100000000000099e-01 6.093790000000000262e+00 1.158910000000000107e+00 2.312099999999999989e-01 4.074650000000000105e+00 4.713099999999999845e+00 3.091599999999999904e-01 6.550000000000000266e-03 2.244029999999999969e+00 4.102190000000000225e+00 -2.016430000000000167e+00 5.801960000000000228e+00 4.110470000000000290e+00 3.924650000000000194e+00 2.305860000000000021e+00 4.052190000000000403e+00 2.092839999999999812e+00 5.769580000000000375e+00 4.093639999999999723e+00 1.933999999999999941e+00 1.103809999999999958e+00 7.169859999999999900e+00 -6.081000000000000294e-02 4.640030000000000321e+00 7.148179999999999978e+00 5.974459999999999660e+00 1.209940000000000015e+00 7.111100000000000421e+00 3.965720000000000134e+00 4.633880000000000443e+00 7.171450000000000102e+00
2.560000000000000209e-03 2.288100000000000023e+00 1.466990000000000016e+00 -1.933789999999999898e+00 5.824880000000000280e+00 1.640419999999999989e+00 4.016409999999999592e+00 2.426109999999999989e+00 1.506580000000000030e+00 2.061729999999999841e+00 5.880379999999999718e+00 1.648789999999999978e+00 -8.665000000000000480e-02 -4.624999999999999944e-02 5.828549999999999898e+00 6.013799999999999812e+00 3.431290000000000173e+00 5.718679999999999986e+00 1.774999999999999842e-02 6.945129999999999804e+00 5.755910000000000082e+00 1.986150000000000082e+00 3.430340000000000167e+00 5.851539999999999964e+00 2.073669999999999902e+00 1.156309999999999949e+00 2.739900000000000113e-01 2.651999999999999844e-02 4.722540000000000404e+00 2.373200000000000032e-01 6.096160000000000245e+00 1.157559999999999922e+00 2.298199999999999965e-01 4.072659999999999947e+00 4.716029999999999944e+00 3.137800000000000034e-01 1.042000000000000044e-02 2.238160000000000149e+00 4.102789999999999715e+00 -2.017300000000000093e+00 5.799240000000000173e+00 4.113999999999999879e+00 3.918200000000000127e+00 2.304499999999999993e+00 4.049629999999999619e+00 2.099130000000000162e+00 5.763880000000000337e+00 4.096750000000000114e+00 1.935340000000000060e+00 1.104489999999999972e+00 7.169599999999999973e+00 -6.289999999999999758e-02 4.641939999999999955e+00 7.145590000000000330e+00 5.975380000000000358e+00 1.219359999999999999e+00 7.105559999999999654e+00 3.963449999999999918e+00 4.636269999999999669e+00 7.170250000000000234e+00
2.220000000000000185e-03 2.285260000000000069e+00 1.458040000000000003e+00 -1.932169999999999943e+00 5.824089999999999989e+00 1.643729999999999913e+00 4.014140000000000263e+00 2.434719999999999995e+00 1.501060000000000061e+00 2.059680000000000177e+00 5.883740000000000414e+00 1.652539999999999898e+00 -8.631999999999999396e-02 -4.581999999999999962e-02 5.833779999999999966e+00 6.014479999999999826e+00 3.428329999999999878e+00 5.714690000000000047e+00 1.847999999999999990e-02 6.942230000000000345e+00 5.755080000000000418e+00 1.986709999999999976e+00 3.427280000000000104e+00 5.858600000000000030e+00 2.076239999999999863e+00 1.153990000000000071e+00 2.751799999999999802e-01 2.399000000000000091e-02 4.724910000000000387e+00 2.374400000000000122e-01 6.098270000000000302e+00 1.156120000000000037e+00 2.285099999999999909e-01 4.070680000000000298e+00 4.719149999999999956e+00 3.183599999999999763e-01 1.426999999999999970e-02 2.232330000000000148e+00 4.103130000000000166e+00 -2.018149999999999888e+00 5.796490000000000364e+00 4.117779999999999774e+00 3.911840000000000206e+00 2.303080000000000016e+00 4.047119999999999607e+00 2.105350000000000055e+00 5.758180000000000298e+00 4.100240000000000329e+00 1.936779999999999946e+00 1.105129999999999946e+00 7.169299999999999784e+00 -6.496999999999999997e-02 4.643860000000000099e+00 7.142920000000000158e+00 5.976189999999999891e+00 1.228550000000000031e+00 7.100060000000000038e+00 3.961289999999999978e+00 4.638700000000000045e+00 7.168929999999999580e+00
1.979999999999999989e-03 2.282540000000000013e+00 1.449219999999999953e+00 -1.930530000000000079e+00 5.823360000000000092e+00 1.646789999999999976e+00 4.011960000000000193e+00 2.443220000000000169e+00 1.495560000000000000e+00 2.057560000000000056e+00 5.887159999999999727e+00 1.655929999999999902e+00 -8.601000000000000312e-02 -4.538999999999999979e-02 5.839100000000000179e+00 6.015109999999999957e+00 3.425469999999999793e+00 5.710650000000000226e+00 1.925999999999999934e-02 6.939379999999999882e+00 5.754319999999999879e+00 1.987209999999999921e+00 3.424209999999999976e+00 5.865709999999999980e+00 2.078759999999999941e+00 1.151499999999999968e+00 2.763800000000000145e-01 2.154999999999999971e-02 4.727240000000000109e+00 2.377599999999999991e-01 6.100089999999999790e+00 1.154560000000000031e+00 2.272599999999999898e-01 4.068699999999999761e+00 4.722500000000000142e+00 3.228900000000000103e-01 1.810000000000000150e-02 2.226550000000000029e+00 4.103200000000000180e+00 -2.018979999999999997e+00 5.793709999999999916e+00 4.121809999999999974e+00 3.905569999999999986e+00 2.301590000000000025e+00 4.044649999999999856e+00 2.111520000000000064e+00 5.752480000000000260e+00 4.104110000000000369e+00 1.938320000000000043e+00 1.105699999999999905e+00 7.168989999999999974e+00 -6.701000000000000012e-02 4.645809999999999995e+00 7.140170000000000350e+00 5.976890000000000036e+00 1.237510000000000110e+00 7.094610000000000305e+00 3.959249999999999936e+00 4.641180000000000305e+00 7.167500000000000426e+00
1.840000000000000056e-03 2.279949999999999921e+00 1.440539999999999932e+00 -1.928860000000000019e+00 5.822700000000000209e+00 1.649599999999999955e+00 4.009850000000000136e+00 2.451600000000000001e+00 1.490080000000000071e+00 2.055340000000000167e+00 5.890620000000000189e+00 1.658989999999999965e+00 -8.572000000000000453e-02 -4.495999999999999996e-02 5.844490000000000407e+00 6.015719999999999956e+00 3.422719999999999985e+00 5.706529999999999880e+00 2.009999999999999981e-02 6.936580000000000190e+00 5.753599999999999604e+00 1.987619999999999942e+00 3.421139999999999848e+00 5.872889999999999944e+00 2.081230000000000135e+00 1.148840000000000083e+00 2.775699999999999834e-01 1.921000000000000138e-02 4.729519999999999946e+00 2.382900000000000018e-01 6.101609999999999978e+00 1.152900000000000036e+00 2.260699999999999932e-01 4.066729999999999734e+00 4.726099999999999746e+00 3.273400000000000198e-01 2.189999999999999933e-02 2.220819999999999794e+00 4.102979999999999627e+00 -2.019769999999999843e+00 5.790890000000000093e+00 4.126100000000000101e+00 3.899399999999999977e+00 2.300019999999999953e+00 4.042200000000000237e+00 2.117640000000000189e+00 5.746780000000000221e+00 4.108360000000000234e+00 1.939980000000000038e+00 1.106200000000000072e+00 7.168669999999999654e+00 -6.904000000000000414e-02 4.647759999999999891e+00 7.137340000000000018e+00 5.977470000000000283e+00 1.246220000000000105e+00 7.089240000000000208e+00 3.957339999999999858e+00 4.643699999999999939e+00 7.165969999999999729e+00
1.809999999999999977e-03 2.277489999999999792e+00 1.432020000000000071e+00 -1.927179999999999893e+00 5.822099999999999831e+00 1.652190000000000047e+00 4.007819999999999716e+00 2.459859999999999935e+00 1.484650000000000025e+00 2.053020000000000067e+00 5.894149999999999778e+00 1.661729999999999929e+00 -8.544000000000000206e-02 -4.451000000000000095e-02 5.849980000000000402e+00 6.016280000000000072e+00 3.420080000000000009e+00 5.702300000000000146e+00 2.099000000000000171e-02 6.933840000000000003e+00 5.752930000000000099e+00 1.987950000000000106e+00 3.418050000000000033e+00 5.880119999999999791e+00 2.083650000000000002e+00 1.145999999999999908e+00 2.787499999999999978e-01 1.699000000000000163e-02 4.731760000000000410e+00 2.390200000000000102e-01 6.102820000000000356e+00 1.151119999999999921e+00 2.249299999999999911e-01 4.064759999999999707e+00 4.729980000000000295e+00 3.317100000000000048e-01 2.569000000000000103e-02 2.215120000000000200e+00 4.102439999999999642e+00 -2.020529999999999937e+00 5.788009999999999877e+00 4.130620000000000402e+00 3.893330000000000179e+00 2.298360000000000181e+00 4.039760000000000240e+00 2.123709999999999987e+00 5.741069999999999673e+00 4.112989999999999924e+00 1.941759999999999931e+00 1.106619999999999937e+00 7.168359999999999843e+00 -7.105000000000000204e-02 4.649729999999999919e+00 7.134450000000000180e+00 5.977929999999999744e+00 1.254660000000000108e+00 7.083949999999999747e+00 3.955560000000000187e+00 4.646250000000000213e+00 7.164349999999999774e+00
1.899999999999999996e-03 2.275170000000000137e+00 1.423659999999999926e+00 -1.925459999999999949e+00 5.821579999999999977e+00 1.654560000000000031e+00 4.005869999999999820e+00 2.467999999999999972e+00 1.479270000000000085e+00 2.050590000000000135e+00 5.897750000000000270e+00 1.664160000000000084e+00 -8.519000000000000183e-02 -4.404000000000000276e-02 5.855550000000000033e+00 6.016810000000000436e+00 3.417580000000000062e+00 5.697930000000000383e+00 2.195000000000000076e-02 6.931149999999999700e+00 5.752279999999999838e+00 1.988199999999999967e+00 3.414960000000000218e+00 5.887410000000000032e+00 2.086030000000000051e+00 1.142959999999999976e+00 2.798999999999999821e-01 1.486999999999999954e-02 4.733950000000000102e+00 2.399600000000000066e-01 6.103679999999999772e+00 1.149219999999999908e+00 2.238300000000000012e-01 4.062789999999999679e+00 4.734169999999999767e+00 3.359800000000000009e-01 2.946000000000000008e-02 2.209470000000000045e+00 4.101560000000000095e+00 -2.021259999999999835e+00 5.785090000000000288e+00 4.135390000000000121e+00 3.887350000000000083e+00 2.296619999999999884e+00 4.037320000000000242e+00 2.129729999999999901e+00 5.735350000000000392e+00 4.117989999999999817e+00 1.943680000000000074e+00 1.106940000000000035e+00 7.168079999999999785e+00 -7.305000000000000382e-02 4.651709999999999567e+00 7.131509999999999572e+00 5.978259999999999685e+00 1.262820000000000054e+00 7.078759999999999941e+00 3.953920000000000101e+00 4.648850000000000371e+00 7.162650000000000183e+00
2.099999999999999870e-03 2.272990000000000066e+00 1.415459999999999940e+00 -1.923729999999999940e+00 5.821119999999999628e+00 1.656740000000000101e+00 4.003999999999999559e+00 2.475989999999999913e+00 1.473950000000000093e+00 2.048049999999999926e+00 5.901419999999999888e+00 1.666299999999999892e+00 -8.494999999999999774e-02 -4.354999999999999843e-02 5.861220000000000319e+00 6.017310000000000159e+00 3.415200000000000014e+00 5.693399999999999572e+00 2.299000000000000002e-02 6.928530000000000300e+00 5.751660000000000217e+00 1.988350000000000062e+00 3.411869999999999958e+00 5.894759999999999778e+00 2.088379999999999903e+00 1.139729999999999910e+00 2.810300000000000020e-01 1.288000000000000082e-02 4.736089999999999911e+00 2.410899999999999987e-01 6.104190000000000005e+00 1.147199999999999998e+00 2.227399999999999936e-01 4.060839999999999783e+00 4.738710000000000200e+00 3.401299999999999879e-01 3.321000000000000341e-02 2.203840000000000021e+00 4.100329999999999586e+00 -2.021949999999999914e+00 5.782099999999999795e+00 4.140390000000000015e+00 3.881460000000000132e+00 2.294770000000000199e+00 4.034860000000000113e+00 2.135709999999999997e+00 5.729599999999999582e+00 4.123350000000000293e+00 1.945719999999999894e+00 1.107169999999999987e+00 7.167839999999999989e+00 -7.502999999999999947e-02 4.653690000000000104e+00 7.128510000000000346e+00 5.978449999999999598e+00 1.270669999999999966e+00 7.073699999999999655e+00 3.952420000000000044e+00 4.651489999999999903e+00 7.160879999999999690e+00