-7.246776169999999695e+01
-7.246993408000000159e+01
-7.246880821999999966e+01
-7.246443177999999818e+01
-7.245691008999999383e+01
-7.244638761999999588e+01
-7.243302785000000199e+01
-7.241701652999999794e+01
-7.239854350000000238e+01
-7.237785349000000679e+01
-7.235514890999999693e+01
-7.233065621000000078e+01
-7.230456449999999791e+01
-7.227707646999999724e+01
-7.224836584999999900e+01
-7.221862152999999296e+01
-7.218801546999999630e+01
-7.215674260999999490e+01
-7.212499103000000389e+01
-7.209292030000000295e+01
-7.206074934999999471e+01
-7.202863788999999883e+01
-7.199677604000000031e+01
-7.196533800999999642e+01
-7.193450683999999740e+01
-7.190444850000000088e+01
-7.187530537000000663e+01
-7.184719076000000371e+01
-7.182017817999999920e+01
-7.179429294999999911e+01
-7.176952860999999473e+01
-7.174582598000000644e+01
-7.172310199000000352e+01
-7.170122768000000235e+01
-7.168004165000000683e+01
-7.165940917000000354e+01
-7.163917428000000598e+01
-7.161919075999999507e+01
-7.159941057000000342e+01
-7.157980707000000109e+01
-7.156042279000000406e+01
-7.154143985999999700e+01
-7.152284016000000122e+01
-7.150482008000000178e+01
-7.148755484999999510e+01
-7.147121124000000236e+01
-7.145593257999999537e+01
-7.144183839999999464e+01
-7.142897861000000148e+01
-7.141733003000000224e+01
-7.140682581000000084e+01
-7.139736562000000220e+01
-7.138883663999999385e+01
-7.138103983999999969e+01
-7.137377250999999490e+01
-7.136677342999999496e+01
-7.135985940999999855e+01
-7.135276306999999463e+01
-7.134518970999999965e+01
-7.133693435000000704e+01
-7.132778924999999504e+01
-7.131757460999999410e+01
-7.130614869000000056e+01
-7.129340460999999607e+01
-7.127929944999999634e+01
-7.126379067000000589e+01
-7.124693501999999512e+01
-7.122882287000000190e+01
-7.120959643000000483e+01
-7.118945091999999875e+01
-7.116862396999999874e+01
-7.114737452999999334e+01
-7.112598364999999490e+01
-7.110471493000000009e+01
-7.108383043000000612e+01
-7.106357552999999427e+01
-7.104417766999999628e+01
-7.102581202000000360e+01
-7.100858415999999806e+01
-7.099257006999999930e+01
-7.097777159000000324e+01
-7.096412503999999899e+01
-7.095151481000000615e+01
-7.093986701000000039e+01
-7.092891824000000156e+01
-7.091853772999999705e+01
-7.090852608999999518e+01
-7.089875508000000082e+01
-7.088909637999999802e+01
-7.087949337999999955e+01
-7.086994498999999337e+01
-7.086050100999999302e+01
-7.085125338000000284e+01
-7.084232402000000661e+01
-7.083387467000000015e+01
-7.082613331000000301e+01
-7.081925114000000576e+01
-7.081344486999999788e+01
-7.080891796000000227e+01
-7.080584263999999450e+01
-7.080437738999999908e+01
-7.080462305999999728e+01
-7.080667866999999660e+01
-7.081052149999999301e+01
-7.081608033000000546e+01
-7.082319529000000102e+01
-7.083164114999999583e+01
-7.084110474000000579e+01
-7.085116766999999527e+01
-7.086133186000000705e+01
-7.087103636000000506e+01
-7.087965676000000315e+01
-7.088651910999999473e+01
-7.089092789000000039e+01
-7.089227882999999508e+01
-7.089002784000000190e+01
-7.088376431999999738e+01
-7.087323612999999511e+01
-7.085839142999999751e+01
-7.083937731999999698e+01
-7.081655127999999877e+01
-7.079046402000000171e+01
-7.076181049999999573e+01
-7.073137484999999458e+01
-7.070009310000000369e+01
-7.066888704999999504e+01
-7.063878567000000430e+01
-7.061053395999999793e+01
-7.058495750000000157e+01
-7.056274260000000709e+01
-7.054447591000000273e+01
-7.053062224999999330e+01
-7.052155940999999473e+01
-7.051755257000000654e+01
-7.051870658999999364e+01
-7.052506472000000315e+01
-7.053654215999999622e+01
-7.055292880000000366e+01
-7.057391667000000268e+01
-7.059903434000000289e+01
-7.062774679999999705e+01
-7.065932150000000433e+01
-7.069295807999999681e+01
-7.072775780000000623e+01
-7.076275569999999959e+01
-7.079700357000000110e+01
-7.082959415000000547e+01
-7.085965419000000054e+01
-7.088649417999999969e+01
-7.090961326000000042e+01
-7.092872513999999740e+01
-7.094374430999999959e+01
-7.095480204000000413e+01
-7.096219390000000260e+01
-7.096632599999999513e+01
-7.096770548000000645e+01
-7.096689265999999918e+01
-7.096443404000000044e+01
-7.096087785999999653e+01
-7.095673580000000413e+01
-7.095246566999999516e+01
-7.094843563000000586e+01
-7.094497010999999986e+01
-7.094234414000000299e+01
-7.094075494000000504e+01
-7.094035537000000602e+01
-7.094123976000000198e+01
-7.094346513000000698e+01
-7.094702938999999731e+01
-7.095190825999999618e+01
-7.095801925000000665e+01
-7.096526224999999499e+01
-7.097345429000000649e+01
-7.098238648999999612e+01
-7.099179483000000346e+01
-7.100134776999999531e+01
-7.101066948000000423e+01
-7.101931906000000083e+01
-7.102684236999999712e+01
-7.103272142999999517e+01
-7.103643361000000311e+01
-7.103742957999999419e+01
-7.103523477000000241e+01
-7.102947869000000480e+01
-7.101986757000000239e+01
-7.100629653000000019e+01
-7.098885747999999296e+01
-7.096784771999999464e+01
-7.094375035999999568e+01
-7.091724985000000459e+01
-7.088915586000000246e+01
-7.086044907000000137e+01
-7.083219626999999718e+01
-7.080551794000000143e+01
-7.078157905000000483e+01
-7.076142500999999640e+01
-7.074617713000000663e+01
-7.073674060999999824e+01
-7.073381299000000411e+01
-7.073864792999999906e+01
-7.075090301999999554e+01
-7.077109178999999983e+01
-7.079914693999999997e+01
-7.083480916000000605e+01
-7.087746611000000030e+01
-7.092626056999999662e+01
-7.098004932999999994e+01
-7.103750180000000114e+01
-7.109703539000000205e+01
-7.115693475000000490e+01
-7.121553224000000171e+01
-7.127114871000000562e+01
-7.132225449000000594e+01
-7.136751074999999389e+01
-7.140590654000000370e+01
-7.143680279999999527e+01
-7.145991768000000377e+01
-7.147528837000000124e+01
-7.148321438000000683e+01
-7.148431856000000550e+01
-7.147946810999999911e+01
-7.146962594000000024e+01
-7.145563943999999879e+01
-7.143852450999999348e+01
-7.141922755000000222e+01
-7.139869079999999713e+01
-7.137771895000000200e+01
-7.135708123000000569e+01
-7.133743359999999711e+01
-7.131934993000000134e+01
-7.130334689999999398e+01
-7.128987868999999478e+01
-7.127934116999999503e+01
-7.127204974999999365e+01
-7.126826047000000131e+01
-7.126814158999999904e+01
-7.127181453999999405e+01
-7.127928627999999378e+01
-7.129053188000000318e+01
-7.130538995000000568e+01
-7.132357745999999565e+01
-7.134465199999999641e+01
-7.136806163999999342e+01
-7.139307710999999301e+01
-7.141882151999999451e+01
-7.144441473999999914e+01
-7.146892685000000256e+01
-7.149144730000000436e+01
-7.151117220000000430e+01
-7.152747702000000629e+01
-7.153995353000000534e+01
-7.154850831000000255e+01
-7.155337029999999743e+01
-7.155497524000000453e+01
-7.155389338000000521e+01
-7.155074362999999948e+01
-7.154617353000000435e+01
-7.154087108000000228e+01
-7.153542317000000139e+01
-7.153039377000000343e+01
-7.152618794999999352e+01
-7.152317057000000489e+01
-7.152161972000000389e+01
-7.152178191999999513e+01
-7.152375302000000090e+01
-7.152765030000000479e+01
-7.153354290999999421e+01
-7.154146803000000432e+01
-7.155143941000000041e+01
-7.156344081999999673e+01
-7.157745176000000242e+01
-7.159340197000000217e+01
-7.161119643000000679e+01
-7.163071913000000279e+01
-7.165182939000000317e+01
-7.167430996999999593e+01
-7.169792273000000193e+01
-7.172236055999999849e+01
-7.174727015999999935e+01
-7.177221545000000447e+01
-7.179671568000000548e+01
-7.182025341000000651e+01
-7.184225560999999516e+01
-7.186216197000000250e+01
-7.187942082000000710e+01
-7.189358857999999941e+01
-7.190431236999999953e+01
-7.191139852000000587e+01
-7.191481964000000460e+01
-7.191472496000000092e+01
-7.191137569999999357e+01
-7.190515453999999806e+01
-7.189653509000000042e+01
-7.188605139999999949e+01
-7.187418897999999956e+01
-7.186145315999999639e+01
-7.184829770999999710e+01
-7.183510943999999654e+01
-7.182222572000000582e+01
-7.180992976999999655e+01
-7.179844319999999414e+01
-7.178793910000000267e+01
-7.177856846999999618e+01
-7.177043505000000323e+01
-7.176361122000000137e+01
-7.175817557999999963e+01
-7.175412857999999972e+01
-7.175148625999999297e+01
-7.175022889999999620e+01
-7.175031547999999759e+01
-7.175168519000000344e+01
-7.175428920000000232e+01
-7.175800488999999516e+01
-7.176268398999999931e+01
-7.176811804000000450e+01
-7.177400977000000637e+01
-7.178004497999999955e+01
-7.178595565000000533e+01
-7.179115629000000354e+01
-7.179520773000000133e+01
-7.179754090999999505e+01
-7.179762264000000016e+01
-7.179503612999999973e+01
-7.178940432999999643e+01
-7.178049814000000595e+01
-7.176823717000000613e+01
-7.175279629999999997e+01
-7.173455006000000367e+01
-7.171406842000000381e+01
-7.169199154000000362e+01
-7.166902442999999323e+01
-7.164591842999999471e+01
-7.162338275999999837e+01
-7.160205833999999925e+01
-7.158247839000000567e+01
-7.156507385999999826e+01
-7.155018739000000494e+01
-7.153807233000000565e+01
-7.152886843000000283e+01
-7.152263318999999342e+01
-7.151938452000000268e+01
-7.151906151000000023e+01
-7.152156890999999916e+01
-7.152676243999999883e+01
-7.153446123999999884e+01
-7.154445954000000540e+01
-7.155647381999999368e+01
-7.157020516999999415e+01
-7.158530217000000562e+01
-7.160143746999999337e+01
-7.161809866999999485e+01
-7.163484205999999688e+01
-7.165115855000000522e+01
-7.166651616000000047e+01
-7.168032510000000457e+01
-7.169200779000000523e+01
-7.170099734999999441e+01
-7.170681586999999979e+01
-7.170907196999999655e+01
-7.170749238999999875e+01
-7.170198883999999850e+01
-7.169263290000000666e+01
-7.167967950000000599e+01
-7.166351683999999977e+01
-7.164469155999999828e+01
-7.162381584999999973e+01
-7.160156157999999493e+01
-7.157856635000000267e+01
-7.155542934999999716e+01
-7.153270134000000269e+01
-7.151076913999999363e+01
-7.149001592000000471e+01
-7.147068418000000634e+01
-7.145296120999999800e+01
-7.143698254000000247e+01
-7.142283274999999776e+01
-7.141053544000000386e+01
-7.140008969000000150e+01
-7.139148113999999623e+01
-7.138474103000000071e+01
-7.137983660999999813e+01
-7.137670869999999468e+01
-7.137536016999999333e+01
-7.137575481000000366e+01
-7.137783491000000424e+01
-7.138153296000000125e+01
-7.138675093000000516e+01
-7.139332984000000693e+01
-7.140106450000000393e+01
-7.140967492999999422e+01
-7.141881759000000329e+01
-7.142804569000000470e+01
-7.143686626000000217e+01
-7.144463869999999872e+01
-7.145082313999999712e+01
-7.145465301999999497e+01
-7.145554001000000710e+01
-7.145299119000000587e+01
-7.144665804999999636e+01
-7.143633726000000195e+01
-7.142203080000000170e+01
-7.140393256999999494e+01
-7.138241895999999542e+01
-7.135801804999999831e+01
-7.133134778999999526e+01
-7.130306181999999637e+01
-7.127389988999999559e+01
-7.124452361999999539e+01
-7.121556744999999466e+01
-7.118763495999999691e+01
-7.116123896000000570e+01
-7.113683727999999462e+01
-7.111486125000000413e+01
-7.109560055000000034e+01
-7.107932812999999328e+01
-7.106626009999999383e+01
-7.105654595000000029e+01
-7.105028538000000538e+01
-7.104749150000000668e+01
-7.104811825000000169e+01
-7.105203951999999390e+01
-7.105903961999999296e+01
-7.106878654000000495e+01
-7.108083922999999515e+01
-7.109458460000000457e+01
-7.110926960999999835e+01
-7.112399842000000660e+01
-7.113766368999999656e+01
-7.114914432999999860e+01
-7.115715541000000144e+01
-7.116047376000000213e+01
-7.115797397000000046e+01
-7.114877577999999403e+01
-7.113237331999999924e+01
-7.110870393000000433e+01
-7.107816861000000586e+01
-7.104163703999999768e+01
-7.100035037000000671e+01
-7.095582840000000147e+01
-7.090984441999999888e+01
-7.086410831000000599e+01
-7.082026870999999346e+01
-7.077991584999999475e+01
-7.074442195000000311e+01
-7.071478722999999889e+01
-7.069189688999999532e+01
-7.067629608999999391e+01
-7.066833248000000367e+01
-7.066805064999999786e+01
-7.067532905000000198e+01
-7.068981141000000434e+01
-7.071096964999999557e+01
-7.073806666000000121e+01
-7.077041533999999956e+01
-7.080686909000000639e+01
-7.084623362000000668e+01
-7.088709147000000144e+01
-7.092861172000000636e+01
-7.096943464000000290e+01
-7.100819298999999774e+01
-7.104368589999999983e+01
-7.107474736999999720e+01
-7.110046798999999851e+01
-7.112013552000000516e+01
-7.113328420999999935e+01
-7.113976757000000362e+01
-7.113974962000000346e+01
-7.113372674000000018e+01
-7.112234315999999978e+01
-7.110651855999999782e+01
-7.108727202999999406e+01
-7.106568142000000421e+01
-7.104280824999999311e+01
-7.101967347000000075e+01
-7.099721855999999320e+01
-7.097627821000000381e+01
-7.095757931999999357e+01
-7.094172385000000247e+01
-7.092921527000000026e+01
-7.092040602000000149e+01
-7.091558322999999575e+01
-7.091492390000000512e+01
-7.091851425999999492e+01
-7.092634829000000707e+01
-7.093833920999999521e+01
-7.095430675000000065e+01
-7.097398110000000315e+01
-7.099697220999999558e+01
-7.102279371999999569e+01
-7.105084338000000344e+01
-7.108042502000000695e+01
-7.111076778000000331e+01
-7.114098147999999355e+01
-7.117022332000000517e+01
-7.119726316000000566e+01
-7.122151886000000331e+01
-7.124214886999999408e+01
-7.125857487000000390e+01
-7.127040218000000493e+01
-7.127751369000000636e+01
-7.128015295999999523e+01
-7.127870065000000466e+01
-7.127374550999999769e+01
-7.126607024999999851e+01
-7.125654758999999672e+01
-7.124605585999999846e+01
-7.123545724000000234e+01
-7.122550866999999641e+01
-7.121686637999999903e+01
-7.121006409000000303e+01
-7.120548008999999468e+01
-7.120337270000000274e+01
-7.120387313999999890e+01
-7.120699756000000491e+01
-7.121266418000000442e+01
-7.122070365000000436e+01
-7.123087743000000671e+01
-7.124287370000000408e+01
-7.125634927000000118e+01
-7.127091903999999545e+01
-7.128617687999999930e+01
-7.130167541999999514e+01
-7.131700331999999776e+01
-7.133175117000000398e+01
-7.134554568000000074e+01
-7.135804541999999628e+01
-7.136898397000000216e+01
-7.137818160000000489e+01
-7.138553937999999732e+01
-7.139105010999999479e+01
-7.139481229999999812e+01
-7.139703686000000005e+01
-7.139803093999999817e+01
-7.139814785000000086e+01
-7.139778191999999990e+01
-7.139738554000000192e+01
-7.139736713000000634e+01
-7.139811108000000672e+01
-7.139993103000000474e+01
-7.140307382000000302e+01
-7.140770422999999312e+01
-7.141395208000000139e+01
-7.142187570000000107e+01
-7.143146930999999711e+01
-7.144265760000000398e+01
-7.145534544000000210e+01
-7.146939562000000024e+01
-7.148468226999999331e+01
-7.150107538999999690e+01
-7.151842648999999597e+01
-7.153658916999999917e+01
-7.155542307000000335e+01
-7.157479605000000333e+01
-7.159455466999999373e+01
-7.161458147999999824e+01
-7.163475603999999919e+01
-7.165496803999999997e+01
-7.167509280000000160e+01
-7.169499371999999937e+01
-7.171451093000000299e+01
-7.173353271000000575e+01
-7.175192798000000494e+01
-7.176955547999999396e+01
-7.178633213999999896e+01
-7.180220687999999996e+01
-7.181685525000000325e+01
-7.183055118999999422e+01
-7.184279275999999470e+01
-7.185365142999999932e+01
-7.186309240999999304e+01
-7.187109728000000075e+01
-7.187770009999999843e+01
-7.188295053000000223e+01
-7.188691930000000241e+01
-7.188975001000000020e+01
-7.189160010000000511e+01
-7.189263637999999901e+01
-7.189302336999999454e+01
-7.189296781999999553e+01
-7.189264423000000193e+01
-7.189222139000000311e+01
-7.189181272999999806e+01
-7.189148959000000616e+01
-7.189129045999999335e+01
-7.189119458000000407e+01
-7.189113727000000154e+01
-7.189101476000000446e+01
-7.189070721000000219e+01
-7.189005876000000228e+01
-7.188892233999999348e+01
-7.188714511999999957e+01
-7.188459301000000323e+01
-7.188119143000000122e+01
-7.187685614999999473e+01
-7.187157811999999524e+01
-7.186537740999999357e+01
-7.185833035000000280e+01
-7.185052876000000310e+01
-7.184207354000000123e+01
-7.183311304000000064e+01
-7.182378957999999614e+01
-7.181423959999999340e+01
-7.180460374000000456e+01
-7.179498789000000158e+01
-7.178550432000000114e+01
-7.177654533000000470e+01
-7.176703677999999798e+01
-7.175803062999999327e+01
-7.174917159000000311e+01
-7.174040026000000125e+01
-7.173161258000000373e+01
-7.172270837000000654e+01
-7.171357419000000277e+01
-7.170406988999999953e+01
-7.169405439000000513e+01
-7.168338515000000655e+01
-7.167195735999999329e+01
-7.165970765000000142e+01
-7.164656696000000125e+01
-7.163252563999999722e+01
-7.161758145999999670e+01
-7.160179917000000671e+01
-7.158525998000000357e+01
-7.156806525000000363e+01
-7.155034410999999750e+01
-7.153227311000000554e+01
-7.151404635000000098e+01
-7.149586308000000656e+01
-7.147790745999999729e+01
-7.146040118000000518e+01
-7.144351570000000606e+01
-7.142744915000000105e+01
-7.141236376000000519e+01
-7.139842701999999974e+01
-7.138580636000000368e+01
-7.137463395000000332e+01
-7.136506026000000702e+01
-7.135715996000000416e+01
-7.135096387000000107e+01
-7.134654754999999682e+01
-7.134388049000000365e+01
-7.134301558999999315e+01
-7.134367022000000702e+01
-7.134591439000000435e+01
-7.134953742000000432e+01
-7.135428022000000681e+01
-7.135991070000000036e+01
-7.136615949999999486e+01
-7.137269374000000255e+01
-7.137919243999999708e+01
-7.138530004999999790e+01
-7.139068858000000262e+01
-7.139509098999999992e+01
-7.139827259000000481e+01
-7.140006139000000474e+01
-7.140039002999999695e+01
-7.139932607999999448e+01
-7.139701488999999412e+01
-7.139367794999999717e+01
-7.138962759999999719e+01
-7.138522858999999698e+01
-7.138087715000000344e+01
-7.137699951000000453e+01
-7.137405422999999871e+01
-7.137245622000000367e+01
-7.137260449999999423e+01
-7.137488969999999711e+01
-7.137952298999999812e+01
-7.138672911000000454e+01
-7.139661470000000065e+01
-7.140923521999999934e+01
-7.142452801999999679e+01
-7.144231419000000471e+01
-7.146231290000000058e+01
-7.148413528000000383e+01
-7.150730640999999821e+01
-7.153126122999999836e+01
-7.155540430000000640e+01
-7.157906866000000434e+01
-7.160158029999999485e+01
-7.162227321000000302e+01
-7.164053019000000688e+01
-7.165581419999999468e+01
-7.166773136999999849e+01
-7.167599635000000546e+01
-7.168046184000000665e+01
-7.168112148000000161e+01
-7.167808501999999748e+01
-7.167157967999999357e+01
-7.166192859000000226e+01
-7.164951752999999712e+01
-7.163476746999999989e+01
-7.161813220000000513e+01
-7.160006961999999930e+01
-7.158102537000000609e+01
-7.156141200999999796e+01
-7.154161007999999811e+01
-7.152196209999999610e+01
-7.150276350999999408e+01
-7.148428728999999748e+01
-7.146676302999999564e+01
-7.145039112000000614e+01
-7.143535887999999545e+01
-7.142180675000000178e+01
-7.140984014000000002e+01
-7.139952956000000484e+01
-7.139097744999999406e+01
-7.138415283999999872e+01
-7.137904226000000563e+01
-7.137556877999999472e+01
-7.137359213999999952e+01
-7.137288069000000235e+01
-7.137325414999999396e+01
-7.137446832999999913e+01
-7.137573681000000647e+01
-7.137705536999999367e+01
-7.137776589000000627e+01
-7.137753664000000242e+01
-7.137592682999999738e+01
-7.137262662000000546e+01
-7.136739145999999323e+01
-7.136023581000000604e+01
-7.135110980999999697e+01
-7.134027940000000001e+01
-7.132803165999999351e+01
-7.131475779000000159e+01
-7.130086255999999878e+01
-7.128678569000000209e+01
-7.127289976999999510e+01
-7.125956673999999680e+01
-7.124710296000000653e+01
-7.123573364000000652e+01
-7.122565461000000653e+01
-7.121696805000000552e+01
-7.120973419999999976e+01
-7.120395571000000245e+01
-7.119958219000000099e+01
-7.119653137000000243e+01
-7.119468784000000028e+01
-7.119391776999999877e+01
-7.119404020999999716e+01
-7.119485722999999666e+01
-7.119616618000000585e+01
-7.119774069000000338e+01
-7.119932853000000250e+01
-7.120067896000000474e+01
-7.120153324999999711e+01
-7.120162849999999821e+01
-7.120072577999999908e+01
-7.119856819999999686e+01
-7.119493009999999344e+01
-7.118963311000000260e+01
-7.118255458000000147e+01
-7.117363554000000647e+01
-7.116289401999999598e+01
-7.115043577999999513e+01
-7.113645019999999874e+01
-7.112117481999999313e+01
-7.110493420000000242e+01
-7.108807982000000436e+01
-7.107100710999999649e+01
-7.105410983999999530e+01
-7.103773390000000632e+01
-7.102217876999999646e+01
-7.100767926000000330e+01
-7.099441177999999297e+01
-7.098250993999999992e+01
-7.097205406999999866e+01
-7.096307573999999363e+01
-7.095556931000000134e+01
-7.094953408000000650e+01
-7.094490946999999892e+01
-7.094163389999999936e+01
-7.093964825999999846e+01
-7.093888954999999896e+01
-7.093929823999999940e+01
-7.094077930000000265e+01
-7.094331870999999978e+01
-7.094681599000000460e+01
-7.095119941999999469e+01
-7.095637050999999929e+01
-7.096221282000000485e+01
-7.096860712999999521e+01
-7.097539949000000092e+01
-7.098241086000000166e+01
-7.098943384999999751e+01
-7.099619936999999936e+01
-7.100240327999999579e+01
-7.100770875999999987e+01
-7.101176488000000120e+01
-7.101424289999999928e+01
-7.101482004999999731e+01
-7.101319424999999796e+01
-7.100916245999999887e+01
-7.100261444000000211e+01
-7.099365111000000184e+01
-7.098246942999999476e+01
-7.096939039999999466e+01
-7.095490719999999385e+01
-7.093958784000000151e+01
-7.092408091000000070e+01
-7.090918584000000635e+01
-7.089549904999999796e+01
-7.088370009000000493e+01
-7.087428715999999440e+01
-7.086766183999999669e+01
-7.086397777999999903e+01
-7.086327572999999802e+01
-7.086547237000000621e+01
-7.087029576000000475e+01
-7.087736759000000575e+01
-7.088623164999999915e+01
-7.089639803999999401e+01
-7.090731413000000316e+01
-7.091846999999999923e+01
-7.092951277000000232e+01
-7.093970378999999582e+01
-7.094904307999999560e+01
-7.095712485999999330e+01
-7.096388783999999816e+01
-7.096924233999999387e+01
