3.184499999999999831e-02 8.179300000000000459e-02 -5.864989999999999926e-01 3.443299999999999833e-02 1.131810000000000038e-01 -5.752059999999999951e-01 1.488100000000000013e-02 1.333070000000000088e-01 -4.347889999999999810e-01 -6.635000000000000273e-03 8.130500000000000227e-02 -5.983089999999999797e-01 -2.732199999999999906e-02 -1.021849999999999981e-01 3.741380000000000261e-01 -7.740999999999999617e-03 -9.365900000000000614e-02 3.797209999999999752e-01 -5.031100000000000155e-02 -3.927200000000000135e-02 3.667449999999999877e-01 -1.207100000000000013e-02 -8.113199999999999579e-02 3.732139999999999902e-01 -1.202359999999999957e-01 -1.389370000000000049e-01 2.304859999999999964e-01 -2.750299999999999967e-02 -1.065190000000000026e-01 2.754260000000000042e-01 2.671600000000000016e-02 -1.117159999999999959e-01 2.375160000000000049e-01 -4.721800000000000302e-02 -9.704500000000000626e-02 2.277679999999999982e-01 7.792999999999999580e-03 -1.347500000000000087e-02 2.657510000000000150e-01 5.141999999999999869e-03 -4.623999999999999638e-03 2.777419999999999889e-01 -1.913099999999999870e-02 -2.995899999999999952e-02 2.196529999999999871e-01 1.961800000000000002e-02 -2.924200000000000063e-02 3.139910000000000201e-01 4.518500000000000294e-02 9.667000000000000592e-02 -3.301339999999999830e-01 2.061599999999999891e-02 6.316099999999999492e-02 -3.323690000000000255e-01 1.932400000000000090e-02 9.823199999999999987e-02 -3.288780000000000037e-01 -4.911999999999999700e-03 1.129679999999999990e-01 -3.545079999999999898e-01
4.545300000000000035e-02 1.109070000000000056e-01 -4.901920000000000166e-01 3.509400000000000019e-02 1.208830000000000043e-01 -6.301740000000000119e-01 4.536799999999999861e-02 9.365400000000000114e-02 -4.148629999999999818e-01 -2.329699999999999827e-02 7.699899999999999800e-02 -6.833970000000000322e-01 -2.906699999999999909e-02 -9.708500000000000463e-02 3.634149999999999880e-01 -2.312700000000000172e-02 -6.967900000000000482e-02 3.613720000000000265e-01 -3.667800000000000227e-02 -1.986600000000000171e-02 3.634410000000000140e-01 -2.969899999999999970e-02 -7.668300000000000116e-02 3.541150000000000131e-01 -1.267469999999999986e-01 -1.580729999999999913e-01 2.180090000000000083e-01 -2.895000000000000004e-03 -1.055549999999999961e-01 3.015999999999999792e-01 -2.509499999999999925e-02 -1.177529999999999966e-01 2.471679999999999988e-01 -4.260800000000000004e-02 -6.609199999999999797e-02 2.102600000000000025e-01 1.820000000000000057e-04 1.711000000000000064e-03 1.862209999999999976e-01 1.092100000000000015e-02 -6.841999999999999992e-03 3.170390000000000152e-01 6.435999999999999881e-03 -3.918399999999999661e-02 2.254690000000000027e-01 -3.059000000000000087e-03 -1.764699999999999949e-02 3.794299999999999895e-01 5.907699999999999757e-02 8.070199999999999596e-02 -3.173869999999999747e-01 2.554800000000000126e-02 6.309700000000000031e-02 -3.262820000000000165e-01 -3.376000000000000095e-03 5.173400000000000221e-02 -3.064029999999999809e-01 2.095400000000000040e-02 1.077990000000000059e-01 -3.567299999999999915e-01
6.000899999999999984e-02 1.395079999999999931e-01 -3.937860000000000249e-01 3.574200000000000293e-02 1.279319999999999902e-01 -6.792080000000000339e-01 7.330599999999999616e-02 5.365899999999999836e-02 -3.892999999999999794e-01 -3.989600000000000091e-02 7.376000000000000612e-02 -7.621379999999999821e-01 -3.068600000000000147e-02 -9.151700000000000113e-02 3.501449999999999840e-01 -3.706000000000000266e-02 -4.456000000000000238e-02 3.376959999999999962e-01 -2.333999999999999964e-02 -1.028000000000000051e-03 3.565450000000000008e-01 -4.706799999999999873e-02 -7.196099999999999719e-02 3.326419999999999932e-01 -1.325790000000000024e-01 -1.766179999999999972e-01 2.041419999999999901e-01 2.093599999999999975e-02 -1.047479999999999939e-01 3.254520000000000191e-01 -7.693300000000000138e-02 -1.244809999999999944e-01 2.537749999999999728e-01 -3.778299999999999714e-02 -3.355000000000000343e-02 1.902099999999999902e-01 -7.780999999999999722e-03 1.708399999999999849e-02 1.076430000000000026e-01 1.654999999999999874e-02 -9.204000000000000375e-03 3.535940000000000194e-01 3.188499999999999668e-02 -4.834600000000000009e-02 2.284940000000000027e-01 -2.502599999999999963e-02 -6.596000000000000300e-03 4.422189999999999732e-01 7.271700000000000386e-02 6.426400000000000168e-02 -3.022679999999999811e-01 3.040100000000000094e-02 6.260499999999999399e-02 -3.180859999999999799e-01 -2.596299999999999997e-02 3.274000000000000000e-03 -2.803760000000000141e-01 4.609100000000000003e-02 1.029130000000000045e-01 -3.561559999999999726e-01
7.582600000000000451e-02 1.686219999999999941e-01 -2.964979999999999838e-01 3.632500000000000312e-02 1.350419999999999954e-01 -7.242750000000000021e-01 9.998300000000000243e-02 1.135899999999999931e-02 -3.584910000000000041e-01 -5.676699999999999802e-02 7.131099999999999939e-02 -8.366630000000000456e-01 -3.282999999999999807e-02 -8.585700000000000276e-02 3.377930000000000099e-01 -5.015200000000000213e-02 -1.801499999999999976e-02 3.135490000000000221e-01 -9.979000000000000023e-03 1.829100000000000170e-02 3.506790000000000185e-01 -6.464899999999999813e-02 -6.634099999999999719e-02 3.114339999999999886e-01 -1.377960000000000018e-01 -1.946039999999999992e-01 1.881430000000000047e-01 4.410599999999999937e-02 -1.042750000000000066e-01 3.464320000000000177e-01 -1.289820000000000133e-01 -1.318529999999999980e-01 2.567760000000000042e-01 -3.261800000000000116e-02 5.509999999999999490e-04 1.668699999999999906e-01 -1.600400000000000086e-02 3.246000000000000274e-02 2.971700000000000036e-02 2.200099999999999972e-02 -1.172800000000000058e-02 3.861350000000000060e-01 5.696999999999999981e-02 -5.744699999999999807e-02 2.280780000000000030e-01 -4.611200000000000021e-02 3.746999999999999897e-03 5.007519999999999749e-01 8.605999999999999761e-02 4.745300000000000212e-02 -2.864840000000000164e-01 3.505500000000000282e-02 6.162000000000000116e-02 -3.093480000000000119e-01 -4.829200000000000159e-02 -4.667400000000000021e-02 -2.524600000000000177e-01 7.046499999999999986e-02 9.831900000000000361e-02 -3.542230000000000101e-01
9.299799999999999733e-02 1.976340000000000041e-01 -1.991960000000000119e-01 3.654899999999999816e-02 1.421530000000000016e-01 -7.644750000000000156e-01 1.256460000000000077e-01 -3.304599999999999899e-02 -3.227329999999999921e-01 -7.361800000000000288e-02 6.942900000000000460e-02 -9.053660000000000041e-01 -3.509199999999999819e-02 -7.980099999999999694e-02 3.227099999999999969e-01 -6.212299999999999767e-02 1.055700000000000041e-02 2.855779999999999985e-01 3.312999999999999973e-03 3.776899999999999702e-02 3.421120000000000272e-01 -8.226200000000000179e-02 -5.984099999999999836e-02 2.876250000000000195e-01 -1.422819999999999918e-01 -2.115519999999999901e-01 1.706469999999999931e-01 6.666999999999999316e-02 -1.042710000000000026e-01 3.647230000000000194e-01 -1.812719999999999887e-01 -1.394459999999999866e-01 2.566789999999999905e-01 -2.696000000000000132e-02 3.616599999999999676e-02 1.403550000000000075e-01 -2.466499999999999942e-02 4.817400000000000154e-02 -4.593699999999999867e-02 2.729699999999999835e-02 -1.422499999999999980e-02 4.151690000000000103e-01 8.212600000000000455e-02 -6.631800000000000195e-02 2.254809999999999870e-01 -6.662099999999999966e-02 1.372600000000000035e-02 5.550869999999999971e-01 9.893699999999999717e-02 3.007999999999999910e-02 -2.675250000000000128e-01 3.966700000000000087e-02 5.987699999999999967e-02 -2.976900000000000102e-01 -7.041899999999999549e-02 -9.887799999999999367e-02 -2.202679999999999916e-01 9.414899999999999658e-02 9.370499999999999663e-02 -3.487230000000000052e-01
1.114850000000000008e-01 2.261509999999999909e-01 -1.048079999999999984e-01 3.669700000000000045e-02 1.493909999999999960e-01 -8.009880000000000333e-01 1.500879999999999992e-01 -7.967000000000000470e-02 -2.843860000000000277e-01 -9.020000000000000240e-02 6.822000000000000286e-02 -9.692070000000000407e-01 -3.733899999999999719e-02 -7.326299999999999479e-02 3.042250000000000232e-01 -7.296199999999999908e-02 4.122599999999999876e-02 2.518440000000000123e-01 1.676100000000000159e-02 5.740300000000000263e-02 3.294509999999999939e-01 -9.979899999999999882e-02 -5.243400000000000144e-02 2.604380000000000028e-01 -1.460279999999999911e-01 -2.277500000000000080e-01 1.544369999999999910e-01 8.833199999999999386e-02 -1.045520000000000060e-01 3.828190000000000204e-01 -2.329589999999999994e-01 -1.475059999999999982e-01 2.560390000000000166e-01 -2.119000000000000050e-02 7.348100000000000465e-02 1.138529999999999959e-01 -3.332000000000000239e-02 6.348900000000000376e-02 -1.160280000000000061e-01 3.234299999999999675e-02 -1.684599999999999986e-02 4.428909999999999791e-01 1.065379999999999938e-01 -7.500500000000000222e-02 2.228529999999999955e-01 -8.578199999999999714e-02 2.284399999999999972e-02 6.069989999999999553e-01 1.115519999999999984e-01 1.242000000000000048e-02 -2.455610000000000015e-01 4.401999999999999663e-02 5.756200000000000205e-02 -2.830440000000000178e-01 -9.188000000000000334e-02 -1.521480000000000055e-01 -1.837409999999999877e-01 1.169830000000000036e-01 8.928700000000000525e-02 -3.394920000000000160e-01
1.309510000000000118e-01 2.544139999999999735e-01 -8.536000000000000185e-03 3.635900000000000243e-02 1.564039999999999875e-01 -8.277839999999999643e-01 1.729519999999999946e-01 -1.278179999999999872e-01 -2.388770000000000060e-01 -1.064920000000000033e-01 6.737799999999999345e-02 -1.021482999999999919e+00 -3.982100000000000223e-02 -6.630099999999999882e-02 2.869940000000000269e-01 -8.289299999999999446e-02 7.377100000000000324e-02 2.173650000000000027e-01 3.006500000000000145e-02 7.722600000000000298e-02 3.176479999999999859e-01 -1.174120000000000025e-01 -4.437499999999999778e-02 2.343220000000000025e-01 -1.492090000000000083e-01 -2.427670000000000106e-01 1.350300000000000111e-01 1.091670000000000001e-01 -1.055159999999999987e-01 3.960219999999999851e-01 -2.841330000000000244e-01 -1.555580000000000018e-01 2.504359999999999919e-01 -1.509600000000000004e-02 1.118630000000000041e-01 8.262200000000000100e-02 -4.220100000000000240e-02 7.876400000000000068e-02 -1.862240000000000006e-01 3.727199999999999958e-02 -1.952800000000000022e-02 4.622970000000000135e-01 1.307210000000000039e-01 -8.333300000000000429e-02 2.145660000000000067e-01 -1.040660000000000057e-01 3.142899999999999860e-02 6.486969999999999681e-01 1.236219999999999958e-01 -5.601000000000000076e-03 -2.241380000000000039e-01 4.815400000000000236e-02 5.429900000000000004e-02 -2.689520000000000244e-01 -1.129519999999999968e-01 -2.071900000000000130e-01 -1.464660000000000128e-01 1.391519999999999979e-01 8.477899999999999325e-02 -3.301109999999999878e-01
1.512819999999999998e-01 2.827850000000000086e-01 8.445300000000000029e-02 3.576700000000000018e-02 1.635429999999999939e-01 -8.500280000000000058e-01 1.943940000000000112e-01 -1.783339999999999925e-01 -1.904420000000000002e-01 -1.221359999999999946e-01 6.713199999999999723e-02 -1.066975999999999924e+00 -4.248999999999999999e-02 -5.927299999999999930e-02 2.677229999999999888e-01 -9.164200000000000124e-02 1.078429999999999944e-01 1.804479999999999973e-01 4.294800000000000006e-02 9.697899999999999576e-02 3.036110000000000197e-01 -1.346519999999999939e-01 -3.546200000000000047e-02 2.059950000000000114e-01 -1.517270000000000008e-01 -2.567059999999999897e-01 1.160729999999999956e-01 1.293989999999999863e-01 -1.070369999999999933e-01 4.080529999999999990e-01 -3.348479999999999790e-01 -1.635979999999999934e-01 2.436909999999999910e-01 -8.652999999999999234e-03 1.516720000000000013e-01 5.028099999999999931e-02 -5.129700000000000232e-02 9.403300000000000547e-02 -2.512159999999999949e-01 4.204299999999999704e-02 -2.214100000000000096e-02 4.787250000000000116e-01 1.545900000000000052e-01 -9.138999999999999901e-02 2.060160000000000047e-01 -1.216980000000000006e-01 3.969600000000000212e-02 6.856139999999999457e-01 1.352389999999999981e-01 -2.401800000000000115e-02 -2.001819999999999988e-01 5.216300000000000103e-02 5.015300000000000313e-02 -2.522989999999999955e-01 -1.334700000000000053e-01 -2.639150000000000107e-01 -1.051789999999999947e-01 1.605630000000000113e-01 8.014599999999999502e-02 -3.174910000000000232e-01
1.721550000000000025e-01 3.106459999999999777e-01 1.785629999999999995e-01 3.465000000000000024e-02 1.703490000000000004e-01 -8.625810000000000421e-01 2.140019999999999978e-01 -2.314910000000000023e-01 -1.347480000000000067e-01 -1.376529999999999976e-01 6.706800000000000261e-02 -1.100246000000000057e+00 -4.550900000000000084e-02 -5.176200000000000245e-02 2.488509999999999889e-01 -9.954599999999999560e-02 1.440079999999999971e-01 1.418790000000000051e-01 5.593100000000000155e-02 1.166620000000000018e-01 2.894820000000000171e-01 -1.521059999999999912e-01 -2.555500000000000133e-02 1.776629999999999876e-01 -1.534040000000000126e-01 -2.697149999999999825e-01 9.486500000000000488e-02 1.487630000000000063e-01 -1.088969999999999938e-01 4.159709999999999797e-01 -3.847180000000000044e-01 -1.716429999999999900e-01 2.329680000000000084e-01 -2.168999999999999921e-03 1.929619999999999946e-01 1.443099999999999938e-02 -6.043699999999999767e-02 1.089149999999999979e-01 -3.149460000000000037e-01 4.674400000000000083e-02 -2.494700000000000042e-02 4.880399999999999738e-01 1.778949999999999976e-01 -9.923200000000000076e-02 1.930350000000000121e-01 -1.384740000000000137e-01 4.746399999999999925e-02 7.133040000000000491e-01 1.464860000000000051e-01 -4.275000000000000328e-02 -1.751979999999999926e-01 5.580100000000000338e-02 4.537999999999999673e-02 -2.345770000000000077e-01 -1.536740000000000050e-01 -3.217329999999999912e-01 -6.184599999999999820e-02 1.812239999999999962e-01 7.538999999999999868e-02 -3.031869999999999843e-01
1.934869999999999923e-01 3.378129999999999744e-01 2.661229999999999984e-01 3.296299999999999925e-02 1.770249999999999879e-01 -8.700649999999999773e-01 2.312490000000000101e-01 -2.849380000000000246e-01 -7.876299999999999968e-02 -1.524089999999999889e-01 6.733899999999999608e-02 -1.125413999999999914e+00 -4.856300000000000200e-02 -4.357500000000000262e-02 2.274150000000000060e-01 -1.063790000000000013e-01 1.813279999999999892e-01 9.933200000000000363e-02 6.876599999999999380e-02 1.363709999999999922e-01 2.724530000000000007e-01 -1.693320000000000103e-01 -1.506599999999999953e-02 1.470039999999999958e-01 -1.546790000000000109e-01 -2.806690000000000018e-01 7.385700000000000598e-02 1.674299999999999955e-01 -1.119259999999999977e-01 4.216920000000000113e-01 -4.331039999999999890e-01 -1.786979999999999957e-01 2.208920000000000050e-01 4.812000000000000305e-03 2.344890000000000030e-01 -2.288199999999999956e-02 -6.988099999999999867e-02 1.239040000000000002e-01 -3.727400000000000158e-01 5.118999999999999939e-02 -2.729600000000000082e-02 4.921459999999999724e-01 2.008550000000000058e-01 -1.062479999999999952e-01 1.796419999999999961e-01 -1.545300000000000007e-01 5.512199999999999739e-02 7.327399999999999469e-01 1.568749999999999867e-01 -6.169499999999999984e-02 -1.488039999999999918e-01 5.929500000000000048e-02 3.912000000000000199e-02 -2.150269999999999959e-01 -1.728860000000000119e-01 -3.805830000000000046e-01 -1.568699999999999956e-02 2.011600000000000055e-01 7.009999999999999565e-02 -2.865030000000000077e-01
2.150859999999999994e-01 3.639530000000000265e-01 3.515539999999999776e-01 3.077699999999999880e-02 1.836990000000000012e-01 -8.697409999999999863e-01 2.466129999999999989e-01 -3.404760000000000009e-01 -1.949899999999999897e-02 -1.668469999999999953e-01 6.795800000000000451e-02 -1.139577999999999980e+00 -5.186500000000000138e-02 -3.489699999999999747e-02 2.048889999999999878e-01 -1.124060000000000059e-01 2.205350000000000088e-01 5.456799999999999845e-02 8.182799999999999796e-02 1.559200000000000030e-01 2.537710000000000243e-01 -1.863819999999999921e-01 -3.289999999999999956e-03 1.152239999999999931e-01 -1.553869999999999973e-01 -2.907270000000000132e-01 5.248799999999999993e-02 1.856810000000000127e-01 -1.154570000000000041e-01 4.252739999999999854e-01 -4.807210000000000094e-01 -1.854520000000000057e-01 2.071550000000000058e-01 1.192000000000000004e-02 2.771150000000000002e-01 -6.186599999999999738e-02 -7.945800000000000085e-02 1.388139999999999930e-01 -4.269720000000000182e-01 5.566000000000000114e-02 -2.958500000000000019e-02 4.914529999999999732e-01 2.234970000000000012e-01 -1.130469999999999947e-01 1.652839999999999865e-01 -1.703230000000000022e-01 6.291800000000000170e-02 7.446899999999999631e-01 1.668100000000000138e-01 -8.092499999999999694e-02 -1.206030000000000019e-01 6.257699999999999374e-02 3.199400000000000160e-02 -1.935080000000000133e-01 -1.915650000000000130e-01 -4.404959999999999987e-01 3.326400000000000190e-02 2.204480000000000051e-01 6.440300000000000191e-02 -2.672640000000000016e-01
2.365909999999999958e-01 3.887260000000000160e-01 4.346260000000000123e-01 2.775000000000000036e-02 1.901950000000000029e-01 -8.614530000000000243e-01 2.598150000000000182e-01 -3.979550000000000032e-01 4.369100000000000067e-02 -1.804979999999999918e-01 6.844200000000000284e-02 -1.141699999999999937e+00 -5.540500000000000286e-02 -2.594199999999999978e-02 1.827590000000000048e-01 -1.175090000000000023e-01 2.609029999999999960e-01 9.717999999999999208e-03 9.447500000000000342e-02 1.753089999999999926e-01 2.354860000000000009e-01 -2.031199999999999950e-01 9.530999999999999542e-03 8.348500000000000365e-02 -1.554490000000000038e-01 -2.989009999999999723e-01 3.066999999999999935e-02 2.030969999999999998e-01 -1.198670000000000013e-01 4.258509999999999796e-01 -5.265760000000000440e-01 -1.910779999999999978e-01 1.914929999999999966e-01 1.927699999999999900e-02 3.200350000000000139e-01 -1.025240000000000040e-01 -8.909400000000000652e-02 1.534169999999999978e-01 -4.774220000000000130e-01 5.983999999999999736e-02 -3.166399999999999770e-02 4.843199999999999728e-01 2.453760000000000108e-01 -1.191220000000000057e-01 1.488700000000000023e-01 -1.851450000000000040e-01 7.037899999999999712e-02 7.468320000000000514e-01 1.760099999999999998e-01 -1.004020000000000051e-01 -9.230299999999999616e-02 6.556599999999999928e-02 2.351699999999999971e-02 -1.713709999999999956e-01 -2.093579999999999885e-01 -5.010989999999999611e-01 8.363400000000000001e-02 2.390299999999999925e-01 5.811000000000000193e-02 -2.470040000000000013e-01
2.580859999999999821e-01 4.123990000000000156e-01 5.129479999999999595e-01 2.412500000000000061e-02 1.966670000000000085e-01 -8.479649999999999688e-01 2.715000000000000191e-01 -4.567169999999999841e-01 1.063709999999999933e-01 -1.935550000000000048e-01 6.877700000000000480e-02 -1.135261000000000076e+00 -5.915499999999999925e-02 -1.636699999999999960e-02 1.582540000000000058e-01 -1.217580000000000051e-01 3.024319999999999786e-01 -3.844199999999999701e-02 1.073680000000000051e-01 1.943850000000000022e-01 2.142300000000000038e-01 -2.193900000000000017e-01 2.365599999999999994e-02 4.873799999999999660e-02 -1.550090000000000079e-01 -3.057150000000000145e-01 9.150000000000000147e-03 2.200749999999999929e-01 -1.249590000000000006e-01 4.247179999999999844e-01 -5.706890000000000018e-01 -1.957280000000000131e-01 1.751479999999999981e-01 2.668299999999999839e-02 3.632460000000000133e-01 -1.438359999999999916e-01 -9.874499999999999944e-02 1.675719999999999987e-01 -5.233149999999999746e-01 6.407499999999999307e-02 -3.351500000000000312e-02 4.722970000000000224e-01 2.666370000000000129e-01 -1.249890000000000029e-01 1.320820000000000050e-01 -1.995689999999999964e-01 7.799200000000000577e-02 7.410940000000000305e-01 1.846279999999999866e-01 -1.199459999999999971e-01 -6.247899999999999981e-02 6.828399999999999748e-02 1.412300000000000014e-02 -1.473690000000000000e-01 -2.263340000000000074e-01 -5.616889999999999938e-01 1.360230000000000050e-01 2.568320000000000047e-01 5.122000000000000164e-02 -2.243410000000000126e-01
2.792729999999999935e-01 4.347429999999999906e-01 5.871070000000000455e-01 1.973899999999999960e-02 2.031509999999999982e-01 -8.284620000000000317e-01 2.818379999999999774e-01 -5.164600000000000302e-01 1.684799999999999909e-01 -2.057029999999999970e-01 6.875599999999999767e-02 -1.119169999999999998e+00 -6.309800000000000131e-02 -6.320000000000000097e-03 1.324160000000000059e-01 -1.252320000000000100e-01 3.443820000000000214e-01 -8.766100000000000281e-02 1.201789999999999942e-01 2.132209999999999939e-01 1.915959999999999885e-01 -2.351930000000000132e-01 3.876399999999999985e-02 1.262300000000000054e-02 -1.540259999999999962e-01 -3.106059999999999932e-01 -1.265999999999999938e-02 2.365089999999999970e-01 -1.309089999999999976e-01 4.208430000000000226e-01 -6.127820000000000489e-01 -1.988399999999999890e-01 1.575120000000000131e-01 3.434700000000000253e-02 4.062149999999999928e-01 -1.863779999999999881e-01 -1.084589999999999999e-01 1.814469999999999972e-01 -5.646820000000000173e-01 6.818299999999999361e-02 -3.496099999999999902e-02 4.548090000000000188e-01 2.871940000000000048e-01 -1.301460000000000117e-01 1.150930000000000009e-01 -2.135390000000000066e-01 8.572699999999999765e-02 7.265289999999999804e-01 1.924810000000000132e-01 -1.396930000000000116e-01 -3.237600000000000200e-02 7.079799999999999982e-02 3.344000000000000184e-03 -1.224750000000000005e-01 -2.424330000000000096e-01 -6.223940000000000028e-01 1.894319999999999893e-01 2.739449999999999941e-01 4.346599999999999769e-02 -2.003820000000000046e-01
2.994209999999999927e-01 4.553289999999999837e-01 6.606649999999999467e-01 1.447500000000000002e-02 2.094749999999999945e-01 -8.002599999999999714e-01 2.906730000000000147e-01 -5.770250000000000101e-01 2.330180000000000029e-01 -2.167999999999999927e-01 6.802800000000000513e-02 -1.090465999999999935e+00 -6.743300000000000682e-02 4.627000000000000036e-03 1.067590000000000067e-01 -1.278799999999999937e-01 3.876569999999999738e-01 -1.372269999999999879e-01 1.332369999999999943e-01 2.317319999999999935e-01 1.688369999999999871e-01 -2.507829999999999782e-01 5.538900000000000073e-02 -2.299199999999999855e-02 -1.524780000000000024e-01 -3.137159999999999949e-01 -3.469699999999999868e-02 2.523529999999999940e-01 -1.376549999999999996e-01 4.142549999999999844e-01 -6.524640000000000439e-01 -2.003409999999999913e-01 1.387720000000000065e-01 4.205400000000000110e-02 4.484940000000000038e-01 -2.298929999999999862e-01 -1.182720000000000021e-01 1.950119999999999909e-01 -6.029400000000000315e-01 7.223599999999999466e-02 -3.595000000000000279e-02 4.306010000000000115e-01 3.071349999999999913e-01 -1.347260000000000124e-01 9.629600000000000659e-02 -2.272830000000000128e-01 9.389300000000000423e-02 7.019079999999999764e-01 1.995909999999999906e-01 -1.595050000000000079e-01 -1.869000000000000002e-03 7.294299999999999395e-02 -8.729999999999999913e-03 -9.646899999999999920e-02 -2.575749999999999984e-01 -6.830209999999999892e-01 2.438249999999999862e-01 2.903629999999999822e-01 3.476900000000000129e-02 -1.750299999999999911e-01
3.181620000000000004e-01 4.739340000000000219e-01 7.298550000000000315e-01 8.255999999999999450e-03 2.156929999999999958e-01 -7.668080000000000451e-01 2.982469999999999843e-01 -6.373240000000000016e-01 2.962529999999999886e-01 -2.267560000000000131e-01 6.652600000000000180e-02 -1.053266999999999953e+00 -7.206400000000000305e-02 1.579600000000000101e-02 8.061300000000000410e-02 -1.300630000000000119e-01 4.303270000000000151e-01 -1.857840000000000047e-01 1.461939999999999906e-01 2.498940000000000050e-01 1.456729999999999969e-01 -2.655359999999999943e-01 7.273000000000000298e-02 -5.752800000000000274e-02 -1.505749999999999866e-01 -3.148449999999999860e-01 -5.681100000000000039e-02 2.676310000000000078e-01 -1.452549999999999952e-01 4.052370000000000139e-01 -6.894390000000000240e-01 -1.998280000000000056e-01 1.194790000000000019e-01 4.989099999999999785e-02 4.894149999999999889e-01 -2.736430000000000251e-01 -1.280409999999999882e-01 2.079610000000000070e-01 -6.373879999999999546e-01 7.613599999999999535e-02 -3.636999999999999955e-02 4.012539999999999996e-01 3.263750000000000262e-01 -1.387190000000000090e-01 7.718300000000000161e-02 -2.405970000000000053e-01 1.021939999999999932e-01 6.690720000000000001e-01 2.058949999999999947e-01 -1.792829999999999979e-01 2.854399999999999993e-02 7.482400000000000162e-02 -2.212499999999999883e-02 -6.973000000000000032e-02 -2.718229999999999813e-01 -7.424659999999999593e-01 2.982210000000000139e-01 3.060149999999999815e-01 2.506299999999999847e-02 -1.487630000000000063e-01
3.354460000000000219e-01 4.902850000000000263e-01 7.950650000000000217e-01 1.067000000000000023e-03 2.217149999999999954e-01 -7.273089999999999833e-01 3.046170000000000266e-01 -6.985099999999999643e-01 3.588350000000000151e-01 -2.355549999999999866e-01 6.429100000000000092e-02 -1.006218000000000057e+00 -7.686600000000000377e-02 2.772000000000000158e-02 5.285900000000000321e-02 -1.314839999999999898e-01 4.726560000000000206e-01 -2.352480000000000127e-01 1.594029999999999891e-01 2.676760000000000250e-01 1.207509999999999972e-01 -2.796509999999999829e-01 9.132099999999999940e-02 -9.267200000000000437e-02 -1.481830000000000092e-01 -3.139939999999999953e-01 -7.845900000000000096e-02 2.824510000000000076e-01 -1.535980000000000123e-01 3.942260000000000209e-01 -7.235620000000000385e-01 -1.971169999999999867e-01 1.001589999999999980e-01 5.782099999999999740e-02 5.289449999999999985e-01 -3.170689999999999897e-01 -1.378759999999999986e-01 2.205259999999999998e-01 -6.674339999999999717e-01 7.997600000000000542e-02 -3.615499999999999964e-02 3.671309999999999851e-01 3.449929999999999941e-01 -1.420490000000000086e-01 5.841699999999999671e-02 -2.538659999999999806e-01 1.110059999999999936e-01 6.286669999999999758e-01 2.114419999999999911e-01 -1.991239999999999954e-01 5.987800000000000067e-02 7.640900000000000469e-02 -3.681299999999999850e-02 -4.134899999999999687e-02 -2.850679999999999881e-01 -8.008459999999999468e-01 3.535059999999999869e-01 3.209429999999999783e-01 1.422600000000000080e-02 -1.206080000000000069e-01
3.508820000000000272e-01 5.044229999999999547e-01 8.545930000000000470e-01 -7.073000000000000294e-03 2.275790000000000035e-01 -6.831599999999999895e-01 3.098199999999999843e-01 -7.591579999999999995e-01 4.195980000000000265e-01 -2.432080000000000075e-01 6.131400000000000045e-02 -9.513139999999999930e-01 -8.177800000000000347e-02 4.043800000000000172e-02 2.460299999999999987e-02 -1.322160000000000002e-01 5.137310000000000487e-01 -2.844289999999999874e-01 1.728369999999999906e-01 2.851609999999999978e-01 9.503999999999999948e-02 -2.932069999999999954e-01 1.109529999999999961e-01 -1.278920000000000057e-01 -1.455089999999999995e-01 -3.110100000000000087e-01 -9.922300000000000564e-02 2.967940000000000023e-01 -1.629740000000000077e-01 3.815910000000000135e-01 -7.542649999999999633e-01 -1.919500000000000095e-01 8.148600000000000287e-02 6.571599999999999664e-02 5.661289999999999933e-01 -3.594120000000000092e-01 -1.476870000000000127e-01 2.325000000000000122e-01 -6.925069999999999837e-01 8.382699999999999874e-02 -3.504499999999999976e-02 3.286240000000000272e-01 3.628080000000000194e-01 -1.449050000000000060e-01 4.059700000000000114e-02 -2.671749999999999958e-01 1.204250000000000043e-01 5.810720000000000329e-01 2.161659999999999970e-01 -2.186970000000000025e-01 9.100700000000000456e-02 7.769299999999999817e-02 -5.282799999999999996e-02 -1.206600000000000034e-02 -2.971179999999999932e-01 -8.569729999999999848e-01 4.082089999999999885e-01 3.349829999999999752e-01 2.187000000000000142e-03 -9.137099999999999389e-02
3.643460000000000032e-01 5.160099999999999687e-01 9.093510000000000204e-01 -1.634800000000000142e-02 2.331479999999999941e-01 -6.337490000000000068e-01 3.135830000000000006e-01 -8.178349999999999786e-01 4.781219999999999914e-01 -2.496140000000000025e-01 5.748199999999999837e-02 -8.878139999999999921e-01 -8.690199999999999314e-02 5.349700000000000288e-02 -4.385000000000000009e-03 -1.323270000000000002e-01 5.530680000000000041e-01 -3.329460000000000197e-01 1.864139999999999964e-01 3.021800000000000042e-01 6.863400000000000056e-02 -3.060499999999999887e-01 1.318149999999999877e-01 -1.631650000000000045e-01 -1.423659999999999926e-01 -3.058219999999999827e-01 -1.201710000000000000e-01 3.105419999999999847e-01 -1.729700000000000126e-01 3.664899999999999824e-01 -7.814159999999999995e-01 -1.840150000000000119e-01 6.262800000000000311e-02 7.364900000000000613e-02 6.007240000000000357e-01 -4.010670000000000068e-01 -1.575799999999999979e-01 2.439820000000000044e-01 -7.145939999999999515e-01 8.750499999999999945e-02 -3.310400000000000148e-02 2.850449999999999928e-01 3.800379999999999869e-01 -1.470450000000000090e-01 2.232800000000000062e-02 -2.803160000000000096e-01 1.303189999999999904e-01 5.259909999999999863e-01 2.200509999999999966e-01 -2.381510000000000016e-01 1.217099999999999987e-01 7.864699999999999469e-02 -7.021199999999999664e-02 1.780899999999999844e-02 -3.081869999999999887e-01 -9.107129999999999947e-01 4.617180000000000173e-01 3.482620000000000160e-01 -1.117399999999999990e-02 -6.152900000000000036e-02