3.752753538391568444e+00 -1.113837282131486583e+00 5.147083407450369075e-01 -1.113837282131486583e+00 1.343061586553959019e+00 1.290511855343090541e+00 5.147083407450369075e-01 1.290511855343090541e+00 1.365362927744333266e-01
3.709866343794694377e+00 -1.072531229889630122e+00 5.872858751194575122e-01 -1.072531229889630122e+00 1.420764915752488200e+00 1.162046622563876141e+00 5.872858751194575122e-01 1.162046622563876141e+00 2.154383965689231073e-01
3.669717729093765701e+00 -1.029313338852491100e+00 6.576725455771221807e-01 -1.029313338852491100e+00 1.504968496854977023e+00 1.028052558673980377e+00 6.576725455771221807e-01 1.028052558673980377e+00 2.832621696145336543e-01
3.639944715206152370e+00 -9.841732747563113337e-01 7.264574051522530995e-01 -9.841732747563113337e-01 1.604425451264691160e+00 8.888603601136684240e-01 7.264574051522530995e-01 8.888603601136684240e-01 3.511892852977269719e-01
3.671050849118584036e+00 -9.389195337587906698e-01 7.926380302602965555e-01 -9.389195337587906698e-01 1.774341415978378356e+00 7.447903890594468335e-01 7.926380302602965555e-01 7.447903890594468335e-01 4.708393910911261027e-01
3.673551740948088895e+00 -8.928803887156404606e-01 8.562454236925276518e-01 -8.928803887156404606e-01 1.921770022754041740e+00 5.973721165475415207e-01 8.562454236925276518e-01 5.973721165475415207e-01 5.470339177809457887e-01
3.741799218807788652e+00 -8.446813825470090853e-01 9.163184989194260721e-01 -8.446813825470090853e-01 2.141920843596741619e+00 4.430815586363783254e-01 9.163184989194260721e-01 4.430815586363783254e-01 6.777003487406744187e-01
3.817849065804992392e+00 -7.965237134334108848e-01 9.735599858765547898e-01 -7.965237134334108848e-01 2.378017433418472493e+00 2.839132282313054367e-01 9.735599858765547898e-01 2.839132282313054367e-01 8.021972242367082506e-01
3.872052279217185866e+00 -7.460305007104407471e-01 1.028476263488070197e+00 -7.460305007104407471e-01 2.597992571777281601e+00 1.218719725014299482e-01 1.028476263488070197e+00 1.218719725014299482e-01 8.527524425422280396e-01
3.954209676095534753e+00 -6.968290709572559916e-01 1.079041816057348280e+00 -6.968290709572559916e-01 2.854240975927663904e+00 -4.537775216262010525e-02 1.079041816057348280e+00 -4.537775216262010525e-02 9.416787821822522053e-01
4.057779667481046459e+00 -6.469455797960246279e-01 1.126548426554174531e+00 -6.469455797960246279e-01 3.141161474912629537e+00 -2.160997894494532112e-01 1.126548426554174531e+00 -2.160997894494532112e-01 1.022761415629739545e+00
4.180437044028105120e+00 -5.974134536025746955e-01 1.170314033570502454e+00 -5.974134536025746955e-01 3.456222174111399870e+00 -3.905628302167847288e-01 1.170314033570502454e+00 -3.905628302167847288e-01 1.105156500574528966e+00
4.289659877689397049e+00 -5.486667314547544194e-01 1.210038943457341976e+00 -5.486667314547544194e-01 3.763315155952533519e+00 -5.674544229673127438e-01 1.210038943457341976e+00 -5.674544229673127438e-01 1.144550714021103310e+00
4.413040652699535826e+00 -5.008190902539046974e-01 1.245423462565702577e+00 -5.008190902539046974e-01 4.094331958394092474e+00 -7.463715314144642177e-01 1.245423462565702577e+00 -7.463715314144642177e-01 1.177971723015390104e+00
4.549762962221618245e+00 -4.538188586812341718e-01 1.275702855377471190e+00 -4.538188586812341718e-01 4.446544335803888970e+00 -9.266217598864340266e-01 1.275702855377471190e+00 -9.266217598864340266e-01 1.213945295157972781e+00
4.698038978625461048e+00 -4.085341148924386268e-01 1.300443082814800588e+00 -4.085341148924386268e-01 4.816242287492700669e+00 -1.107616055349000428e+00 1.300443082814800588e+00 -1.107616055349000428e+00 1.243129256011363593e+00
4.834957639158950826e+00 -3.650268644700677134e-01 1.319881832944130640e+00 -3.650268644700677134e-01 5.179109290837287993e+00 -1.288724027712907727e+00 1.319881832944130640e+00 -1.288724027712907727e+00 1.236298307667138774e+00
4.984184407828555763e+00 -3.245785561201485758e-01 1.334277462359418687e+00 -3.245785561201485758e-01 5.557839389050838186e+00 -1.469676986120440842e+00 1.334277462359418687e+00 -1.469676986120440842e+00 1.234593154147022087e+00
5.143476749398727677e+00 -2.871271842601313962e-01 1.343361280202949093e+00 -2.871271842601313962e-01 5.950562080393104303e+00 -1.649307158766913917e+00 1.343361280202949093e+00 -1.649307158766913917e+00 1.219649808752544917e+00
5.305580010711152816e+00 -2.524453950873341013e-01 1.346523564912983861e+00 -2.524453950873341013e-01 6.347222126227276107e+00 -1.826829141606697071e+00 1.346523564912983861e+00 -1.826829141606697071e+00 1.188450666466289052e+00
5.448223853366732428e+00 -2.217009604064425210e-01 1.343505959895565205e+00 -2.217009604064425210e-01 6.720661081396586134e+00 -2.000207084679408887e+00 1.343505959895565205e+00 -2.000207084679408887e+00 1.137451074819162855e+00
5.583303014951247256e+00 -1.946665264147745267e-01 1.334132782666802797e+00 -1.946665264147745267e-01 7.084427165688143013e+00 -2.169327311083708132e+00 1.334132782666802797e+00 -2.169327311083708132e+00 1.064708192224609773e+00
5.723611313997453820e+00 -1.716831238163534223e-01 1.318166345160255659e+00 -1.716831238163534223e-01 7.451365868953493177e+00 -2.333642104840405906e+00 1.318166345160255659e+00 -2.333642104840405906e+00 9.911489027931522644e-01
5.838125290702985914e+00 -1.537945132507657631e-01 1.295834001178606254e+00 -1.537945132507657631e-01 7.784170499025234946e+00 -2.491415309638110198e+00 1.295834001178606254e+00 -2.491415309638110198e+00 9.011064626672335987e-01
5.961103029426553235e+00 -1.397915858582924609e-01 1.266815388545348142e+00 -1.397915858582924609e-01 8.118990310529841992e+00 -2.641995866860050501e+00 1.266815388545348142e+00 -2.641995866860050501e+00 8.085837992393269946e-01
6.083605392017237712e+00 -1.304390771570464458e-01 1.231575549129603431e+00 -1.304390771570464458e-01 8.443661875023815711e+00 -2.783916311052549108e+00 1.231575549129603431e+00 -2.783916311052549108e+00 7.122581267483724110e-01
6.183713405043723910e+00 -1.260160122685013984e-01 1.190744873020627814e+00 -1.260160122685013984e-01 8.731688140230916773e+00 -2.916773605929033675e+00 1.190744873020627814e+00 -2.916773605929033675e+00 5.998833426408043401e-01
6.269115760742174359e+00 -1.262743688624584359e-01 1.144716062241236010e+00 -1.262743688624584359e-01 8.989197324559809132e+00 -3.039834018762666012e+00 1.144716062241236010e+00 -3.039834018762666012e+00 4.821657441702041358e-01
6.336898196732750677e+00 -1.314621692691164412e-01 1.093675133539076638e+00 -1.314621692691164412e-01 9.211931711342081996e+00 -3.151826435111177549e+00 1.093675133539076638e+00 -3.151826435111177549e+00 3.584026014010084360e-01
6.390129989351666318e+00 -1.410627003005612556e-01 1.038138800102064385e+00 -1.410627003005612556e-01 9.403528961420645871e+00 -3.252823194820876118e+00 1.038138800102064385e+00 -3.252823194820876118e+00 2.316528564056689332e-01
6.425359494503652513e+00 -1.550862962205511175e-01 9.786341093818717862e-01 -1.550862962205511175e-01 9.558077875925764744e+00 -3.341439506548151694e+00 9.786341093818717862e-01 -3.341439506548151694e+00 9.974631379494630634e-02
6.439114399565927016e+00 -1.728508956210393632e-01 9.162564933368763098e-01 -1.728508956210393632e-01 9.672591852631299503e+00 -3.418698462405074689e+00 9.162564933368763098e-01 -3.418698462405074689e+00 -3.841245838953744746e-02
6.441987324890730449e+00 -1.943358299745094608e-01 8.511713001872107665e-01 -1.943358299745094608e-01 9.755575990610308779e+00 -3.483091259882935109e+00 8.511713001872107665e-01 -3.483091259882935109e+00 -1.725925390270822979e-01
6.444147186016211393e+00 -2.195100964896865570e-01 7.838539060657561119e-01 -2.195100964896865570e-01 9.816496475465386951e+00 -3.534834918520657787e+00 7.838539060657561119e-01 -3.534834918520657787e+00 -2.863417802145019064e-01
6.424842781315739160e+00 -2.477743078685902267e-01 7.165261776805431637e-01 -2.477743078685902267e-01 9.838043415401408254e+00 -3.575014536012861122e+00 7.165261776805431637e-01 -3.575014536012861122e+00 -3.998223305442061837e-01
6.381108177090685452e+00 -2.780640349441172998e-01 6.499735190772014670e-01 -2.780640349441172998e-01 9.816909846015718699e+00 -3.603516435458205436e+00 6.499735190772014670e-01 -3.603516435458205436e+00 -5.173642465309156169e-01
6.320621731313456060e+00 -3.097695561545292242e-01 5.853740363241752842e-01 -3.097695561545292242e-01 9.760092063872679802e+00 -3.621353374705001738e+00 5.853740363241752842e-01 -3.621353374705001738e+00 -6.291396433405032074e-01
6.252436259036305621e+00 -3.428908714998257778e-01 5.210845814838973578e-01 -3.428908714998257778e-01 9.675816142923881813e+00 -3.627781286762653767e+00 5.210845814838973578e-01 -3.627781286762653767e+00 -7.248865970609940090e-01
6.145941671007199680e+00 -3.749787604692941256e-01 4.605257958603597990e-01 -3.749787604692941256e-01 9.538959487972942242e+00 -3.624650004843894102e+00 4.605257958603597990e-01 -3.624650004843894102e+00 -8.359592639350182930e-01
6.048747920360550090e+00 -4.069426382736631154e-01 4.014551442180148699e-01 -4.069426382736631154e-01 9.396439656482463931e+00 -3.609737662240692035e+00 4.014551442180148699e-01 -3.609737662240692035e+00 -9.231494472636510018e-01
5.908987337293532427e+00 -4.384414742089093320e-01 3.464355239689168031e-01 -4.384414742089093320e-01 9.200409007251595384e+00 -3.588552421536212123e+00 3.464355239689168031e-01 -3.588552421536212123e+00 -1.041941809165112698e+00
5.739195383744944756e+00 -4.695682766488573079e-01 3.000346796942267025e-01 -4.695682766488573079e-01 8.965604200399649670e+00 -3.560928934510321664e+00 3.000346796942267025e-01 -3.560928934510321664e+00 -1.130744137640037561e+00
5.572276355521159630e+00 -5.006124049787390451e-01 2.545225821027489732e-01 -5.006124049787390451e-01 8.713964877885461036e+00 -3.521431378426164827e+00 2.545225821027489732e-01 -3.521431378426164827e+00 -1.209098525455338358e+00
5.418543847852943962e+00 -5.278741927730893346e-01 2.130615159045180507e-01 -5.278741927730893346e-01 8.472608147810765544e+00 -3.474358807007186023e+00 2.130615159045180507e-01 -3.474358807007186023e+00 -1.274659094737884857e+00
5.236216432365558227e+00 -5.554976797989793491e-01 1.750830965928284744e-01 -5.554976797989793491e-01 8.186204362013713265e+00 -3.419308183966813353e+00 1.750830965928284744e-01 -3.419308183966813353e+00 -1.336954036672813872e+00
5.065236038484768777e+00 -5.809509714356301258e-01 1.406803325415047767e-01 -5.809509714356301258e-01 7.901309378725371424e+00 -3.355483770995658421e+00 1.406803325415047767e-01 -3.355483770995658421e+00 -1.376709949350928053e+00
4.878557897955147382e+00 -6.067349595125459683e-01 1.091504938149837345e-01 -6.067349595125459683e-01 7.583706450642063501e+00 -3.283019913522578381e+00 1.091504938149837345e-01 -3.283019913522578381e+00 -1.408477476143889628e+00
4.685648196379280428e+00 -6.304107577827720021e-01 8.075193700722238521e-02 -6.304107577827720021e-01 7.253175358597144573e+00 -3.203900790189165182e+00 8.075193700722238521e-02 -3.203900790189165182e+00 -1.449876536759570733e+00
4.496128133316130260e+00 -6.529187842483120674e-01 5.507129156788943825e-02 -6.529187842483120674e-01 6.915668638515383826e+00 -3.118529437281989836e+00 5.507129156788943825e-02 -3.118529437281989836e+00 -1.478440441787464810e+00
4.283407648115636235e+00 -6.762742203420313292e-01 3.196387780436893422e-02 -6.762742203420313292e-01 6.539687454461535765e+00 -3.025996439590325160e+00 3.196387780436893422e-02 -3.025996439590325160e+00 -1.504059081644248064e+00
4.077611119633190562e+00 -6.987512440162966243e-01 1.055128329720681629e-02 -6.987512440162966243e-01 6.160233957784905456e+00 -2.926942521467184033e+00 1.055128329720681629e-02 -2.926942521467184033e+00 -1.508161784356286228e+00
3.870409131279619164e+00 -7.208045628764723212e-01 -8.587773183133069407e-03 -7.208045628764723212e-01 5.767624943343981236e+00 -2.820582278866937020e+00 -8.587773183133069407e-03 -2.820582278866937020e+00 -1.495781336373863457e+00
3.665294664205220432e+00 -7.437776312111351595e-01 -2.625936420979678443e-02 -7.437776312111351595e-01 5.377124118709745382e+00 -2.713188609890861080e+00 -2.625936420979678443e-02 -2.713188609890861080e+00 -1.494830584108101323e+00
3.454475683536249786e+00 -7.674844322726360746e-01 -4.290786312439050232e-02 -7.674844322726360746e-01 4.965190031040831897e+00 -2.598426610855129937e+00 -4.290786312439050232e-02 -2.598426610855129937e+00 -1.470534730012378333e+00
3.243232998053189320e+00 -7.923383366113063708e-01 -5.824391054168228526e-02 -7.923383366113063708e-01 4.541609228116333163e+00 -2.479892605547624918e+00 -5.824391054168228526e-02 -2.479892605547624918e+00 -1.431047508191979567e+00
3.104423167251934235e+00 -8.213156121895315298e-01 -7.160611358114205016e-02 -8.213156121895315298e-01 4.188260081693125692e+00 -2.353153194816044014e+00 -7.160611358114205016e-02 -2.353153194816044014e+00 -1.411443409842516816e+00
2.917197310743123051e+00 -8.496728319422597320e-01 -8.525767600583372685e-02 -8.496728319422597320e-01 3.778165492973186268e+00 -2.226372447029429491e+00 -8.525767600583372685e-02 -2.226372447029429491e+00 -1.371170783976488616e+00
2.730002457025587415e+00 -8.796318625775219058e-01 -9.872322168287631095e-02 -8.796318625775219058e-01 3.360805916831174134e+00 -2.097938217041489750e+00 -9.872322168287631095e-02 -2.097938217041489750e+00 -1.308793167931493029e+00
2.568922287825232242e+00 -9.103762972584134028e-01 -1.113516919954979784e-01 -9.103762972584134028e-01 2.966688099881539920e+00 -1.964646883087157514e+00 -1.113516919954979784e-01 -1.964646883087157514e+00 -1.237941455604705698e+00
2.410766715268470861e+00 -9.437663034614254265e-01 -1.234427805926889554e-01 -9.437663034614254265e-01 2.570389753278908174e+00 -1.830621816405986868e+00 -1.234427805926889554e-01 -1.830621816405986868e+00 -1.161302555573279882e+00
2.260837216663302840e+00 -9.789751400858950348e-01 -1.347794679355252823e-01 -9.789751400858950348e-01 2.178948510642669589e+00 -1.694922598995974417e+00 -1.347794679355252823e-01 -1.694922598995974417e+00 -1.073605993320491336e+00
2.125706383759996321e+00 -1.015661776427799312e+00 -1.447830352535430798e-01 -1.015661776427799312e+00 1.801065822057297705e+00 -1.558355303430266181e+00 -1.447830352535430798e-01 -1.558355303430266181e+00 -9.794711847462926890e-01
2.001674550133085262e+00 -1.054849304599207782e+00 -1.534638168105006972e-01 -1.054849304599207782e+00 1.432504639381897205e+00 -1.420930263972620677e+00 -1.534638168105006972e-01 -1.420930263972620677e+00 -8.713024459883458306e-01
1.882251798142368093e+00 -1.096734075611528469e+00 -1.607081357050570147e-01 -1.096734075611528469e+00 1.069678973092343943e+00 -1.283815252427723319e+00 -1.607081357050570147e-01 -1.283815252427723319e+00 -7.642704762438100596e-01
1.788013646930586509e+00 -1.141068067134562103e+00 -1.666503373660696286e-01 -1.141068067134562103e+00 7.307667931394570271e-01 -1.146028513738537757e+00 -1.666503373660696286e-01 -1.146028513738537757e+00 -6.491881150315720328e-01
1.699924382654983468e+00 -1.188409329411255877e+00 -1.715281098599791554e-01 -1.188409329411255877e+00 3.989955894435435191e-01 -1.008355451950693427e+00 -1.715281098599791554e-01 -1.008355451950693427e+00 -5.351805172501953312e-01
1.629847740110067056e+00 -1.238117138088596469e+00 -1.740806730082750386e-01 -1.238117138088596469e+00 8.650812192058596195e-02 -8.718398277037764377e-01 -1.740806730082750386e-01 -8.718398277037764377e-01 -4.212349250513682808e-01
1.601852219588878912e+00 -1.289034055625656094e+00 -1.740496702170001853e-01 -1.289034055625656094e+00 -1.813146576390730347e-01 -7.349521699615615411e-01 -1.740496702170001853e-01 -7.349521699615615411e-01 -2.961799993123872543e-01
1.581876087744118031e+00 -1.342896238333826542e+00 -1.714867728049460360e-01 -1.342896238333826542e+00 -4.412730624786787570e-01 -5.994079665079232733e-01 -1.714867728049460360e-01 -5.994079665079232733e-01 -1.822860784323516448e-01
1.581493719985061608e+00 -1.399217975816468229e+00 -1.670327051251261075e-01 -1.399217975816468229e+00 -6.811106557809077922e-01 -4.645148216710569544e-01 -1.670327051251261075e-01 -4.645148216710569544e-01 -7.924313449851308477e-02
1.613591943218288138e+00 -1.456449128509838875e+00 -1.595713666916458717e-01 -1.456449128509838875e+00 -8.882713070794462373e-01 -3.309237940677342560e-01 -1.595713666916458717e-01 -3.309237940677342560e-01 1.316585202805238379e-02
1.663537439962069486e+00 -1.514651701996487798e+00 -1.493921168897372476e-01 -1.514651701996487798e+00 -1.076334238952677991e+00 -1.982835187301735524e-01 -1.493921168897372476e-01 -1.982835187301735524e-01 9.010444570846840029e-02
1.739173916408941700e+00 -1.573453662781117313e+00 -1.364432844006088219e-01 -1.573453662781117313e+00 -1.237796775912089586e+00 -6.667666976844111026e-02 -1.364432844006088219e-01 -6.667666976844111026e-02 1.553239842869915954e-01
1.846898281825282373e+00 -1.631480553783875909e+00 -1.211175712470752980e-01 -1.631480553783875909e+00 -1.368266855860410969e+00 6.420678073021150734e-02 -1.211175712470752980e-01 6.420678073021150734e-02 1.987485605992962423e-01
1.989914157976159226e+00 -1.688732375004762920e+00 -1.030842809888716932e-01 -1.688732375004762920e+00 -1.464933559055389134e+00 1.945735180409499943e-01 -1.030842809888716932e-01 1.945735180409499943e-01 2.169368648138741140e-01
2.167301795387084784e+00 -1.743834669363927281e+00 -8.266377580250472423e-02 -1.743834669363927281e+00 -1.528406607058762301e+00 3.228837368637901828e-01 -8.266377580250472423e-02 3.228837368637901828e-01 2.179392883984275497e-01
2.381737768371454234e+00 -1.795020277758702321e+00 -5.949435645643452036e-02 -1.795020277758702321e+00 -1.557352879845712801e+00 4.506049026524082124e-01 -5.949435645643452036e-02 4.506049026524082124e-01 2.019005110455725227e-01
2.607985804831541188e+00 -1.843963350917930066e+00 -3.746170612377542480e-02 -1.843963350917930066e+00 -1.584511325002480264e+00 5.778093552531120558e-01 -3.746170612377542480e-02 5.778093552531120558e-01 1.367739808408738600e-01
2.878247470638154670e+00 -1.886964222416145143e+00 -1.384791343609905433e-02 -1.886964222416145143e+00 -1.571655500887176427e+00 7.041250611706036944e-01 -1.384791343609905433e-02 7.041250611706036944e-01 5.202268375919599785e-02
3.178674852355196645e+00 -1.924425928539920561e+00 9.187160481113476954e-03 -1.924425928539920561e+00 -1.532726329309724633e+00 8.298103769988399714e-01 9.187160481113476954e-03 8.298103769988399714e-01 -6.124084703158431953e-02
3.506674049779336944e+00 -1.955470056869802242e+00 3.064109204330872638e-02 -1.955470056869802242e+00 -1.470658741177477635e+00 9.546172804076223928e-01 3.064109204330872638e-02 9.546172804076223928e-01 -2.031199541690499322e-01
3.861273642117297289e+00 -1.978649810479630844e+00 5.124761397732478102e-02 -1.978649810479630844e+00 -1.388201650650138674e+00 1.079114155903656336e+00 5.124761397732478102e-02 1.079114155903656336e+00 -3.714237737364448622e-01
4.233792847812119398e+00 -1.994626582249936053e+00 6.967360625834313759e-02 -1.994626582249936053e+00 -1.291803638312875924e+00 1.201833538033265203e+00 6.967360625834313759e-02 1.201833538033265203e+00 -5.646125004337848585e-01
4.631434648703327994e+00 -2.000289758789475236e+00 8.961873531182910912e-02 -2.000289758789475236e+00 -1.172814925400007091e+00 1.319013754788434856e+00 8.961873531182910912e-02 1.319013754788434856e+00 -7.679391398780004430e-01
5.059159491394898289e+00 -1.997520176102255185e+00 1.075176801411750344e-01 -1.997520176102255185e+00 -1.027060469353185290e+00 1.437072383963058364e+00 1.075176801411750344e-01 1.437072383963058364e+00 -9.857854199026034880e-01
5.496515867909188557e+00 -1.987351260564105049e+00 1.208075433343268196e-01 -1.987351260564105049e+00 -8.731936162561115822e-01 1.553250177133674415e+00 1.208075433343268196e-01 1.553250177133674415e+00 -1.216735546372709198e+00
5.916893049068618460e+00 -1.968956271074361553e+00 1.324645928536698769e-01 -1.968956271074361553e+00 -7.310664867884472118e-01 1.663320420423145540e+00 1.324645928536698769e-01 1.663320420423145540e+00 -1.468684896799645756e+00
6.368180013129073558e+00 -1.942097519566584385e+00 1.424474916441711425e-01 -1.942097519566584385e+00 -5.542162310929523716e-01 1.769815008452250371e+00 1.424474916441711425e-01 1.769815008452250371e+00 -1.708853186542139690e+00
6.833201213724287015e+00 -1.907147039536071675e+00 1.507459054420723088e-01 -1.907147039536071675e+00 -3.557776984064045522e-01 1.871803857482744249e+00 1.507459054420723088e-01 1.871803857482744249e+00 -1.943327296953820005e+00
7.268893773773492661e+00 -1.865727310392873761e+00 1.569878007520751628e-01 -1.865727310392873761e+00 -1.738016478868013859e-01 1.967127106389145341e+00 1.569878007520751628e-01 1.967127106389145341e+00 -2.183619597861413464e+00
7.715147951383664271e+00 -1.817331953212835138e+00 1.628266597755050060e-01 -1.817331953212835138e+00 2.965933698627185380e-02 2.054947679807033190e+00 1.628266597755050060e-01 2.054947679807033190e+00 -2.405330892531614140e+00
8.129417582661949027e+00 -1.763862472527479408e+00 1.677974406432390375e-01 -1.763862472527479408e+00 2.200578124688755410e-01 2.134728196020977187e+00 1.677974406432390375e-01 2.134728196020977187e+00 -2.630163134856816409e+00
8.540070221624835867e+00 -1.705432545238148023e+00 1.729232354673473637e-01 -1.705432545238148023e+00 4.242938671238200010e-01 2.204546481971935812e+00 1.729232354673473637e-01 2.204546481971935812e+00 -2.834492197885585263e+00
8.949265729397804847e+00 -1.643395959897176128e+00 1.758891691659745238e-01 -1.643395959897176128e+00 6.463048554430109727e-01 2.267296131512229973e+00 1.758891691659745238e-01 2.267296131512229973e+00 -3.018555769684361678e+00
9.322973375424830067e+00 -1.578414109385093411e+00 1.786690861169526190e-01 -1.578414109385093411e+00 8.578058975200283376e-01 2.318688425182170665e+00 1.786690861169526190e-01 2.318688425182170665e+00 -3.193711206123498236e+00
9.653752489799948933e+00 -1.511675434034102539e+00 1.810046297263245563e-01 -1.511675434034102539e+00 1.053877883805929283e+00 2.355819434865680684e+00 1.810046297263245563e-01 2.355819434865680684e+00 -3.354419341828555279e+00
9.971520766103388667e+00 -1.442528875227431673e+00 1.829784741041566021e-01 -1.442528875227431673e+00 1.263446418560147722e+00 2.383225902352647196e+00 1.829784741041566021e-01 2.383225902352647196e+00 -3.488847444796298713e+00
1.025269541443874921e+01 -1.371491146152995277e+00 1.857170540001015779e-01 -1.371491146152995277e+00 1.467558462049992851e+00 2.400597799730320503e+00 1.857170540001015779e-01 2.400597799730320503e+00 -3.607195433356154446e+00
1.050471710471199316e+01 -1.298996285888640800e+00 1.890446869302686572e-01 -1.298996285888640800e+00 1.674305742798199992e+00 2.406612341237641228e+00 1.890446869302686572e-01 2.406612341237641228e+00 -3.704823223080652372e+00
1.072691410977883208e+01 -1.225550673358524412e+00 1.932817350711646120e-01 -1.225550673358524412e+00 1.884215308256441901e+00 2.398882311946445522e+00 1.932817350711646120e-01 2.398882311946445522e+00 -3.777111398069841197e+00
1.090075709472066912e+01 -1.152074058037133364e+00 1.964956910999905992e-01 -1.152074058037133364e+00 2.081630748830919586e+00 2.378337795594979376e+00 1.964956910999905992e-01 2.378337795594979376e+00 -3.831862327461224016e+00
1.104403132746550042e+01 -1.079021147529831470e+00 1.992962765784852541e-01 -1.079021147529831470e+00 2.285277750451641943e+00 2.347717372079187292e+00 1.992962765784852541e-01 2.347717372079187292e+00 -3.858349045473703054e+00
1.113740140052158800e+01 -1.008066092565461425e+00 1.999059981402239450e-01 -1.008066092565461425e+00 2.473040988675883511e+00 2.301450873233354510e+00 1.999059981402239450e-01 2.301450873233354510e+00 -3.868497292484336825e+00
1.119286539411229242e+01 -9.365323188306273750e-01 2.010944384724265011e-01 -9.365323188306273750e-01 2.662922750970572849e+00 2.244540082716491192e+00 2.010944384724265011e-01 2.244540082716491192e+00 -3.853336927550935709e+00
1.120260027057259400e+01 -8.670550635836915543e-01 2.006707336583368750e-01 -8.670550635836915543e-01 2.844330416983470666e+00 2.174277423423925715e+00 2.006707336583368750e-01 2.174277423423925715e+00 -3.815895889954677322e+00
1.117694029366077757e+01 -8.004197308702836189e-01 1.973637692556863554e-01 -8.004197308702836189e-01 3.026699169525888244e+00 2.091685987467728935e+00 1.973637692556863554e-01 2.091685987467728935e+00 -3.744155430944677398e+00
1.111419064412048385e+01 -7.368640087568438801e-01 1.925583366080848291e-01 -7.368640087568438801e-01 3.210535387521982642e+00 1.997551178893530288e+00 1.925583366080848291e-01 1.997551178893530288e+00 -3.646310621681254638e+00
1.099286638759824264e+01 -6.764189000346473302e-01 1.856757169450684308e-01 -6.764189000346473302e-01 3.376524332007522222e+00 1.892327705306694030e+00 1.856757169450684308e-01 1.892327705306694030e+00 -3.532954082516650107e+00
1.083463847519517387e+01 -6.219676642922549181e-01 1.746800603062554635e-01 -6.219676642922549181e-01 3.540177732883690087e+00 1.775674536003196913e+00 1.746800603062554635e-01 1.775674536003196913e+00 -3.383944333385969561e+00
1.064229715812601285e+01 -5.738306637061733051e-01 1.586206144258838491e-01 -5.738306637061733051e-01 3.703996481979989763e+00 1.648046378588403416e+00 1.586206144258838491e-01 1.648046378588403416e+00 -3.197875914418086385e+00
1.041266981741696718e+01 -5.327312967394821630e-01 1.394608894180273950e-01 -5.327312967394821630e-01 3.862875452999830816e+00 1.509897940667677796e+00 1.394608894180273950e-01 1.509897940667677796e+00 -2.987594315464546568e+00
1.014204645237881408e+01 -4.993619590639867822e-01 1.141212746827177937e-01 -4.993619590639867822e-01 4.012670606176141241e+00 1.363296074992676798e+00 1.141212746827177937e-01 1.363296074992676798e+00 -2.744935468156305625e+00
9.843737594732219875e+00 -4.756861607937607483e-01 8.249842758237219131e-02 -4.756861607937607483e-01 4.159572165500132535e+00 1.208364792728500170e+00 8.249842758237219131e-02 1.208364792728500170e+00 -2.471893885398714019e+00
9.512514107015496378e+00 -4.612905313784727013e-01 4.385861539015252497e-02 -4.612905313784727013e-01 4.297317567134284921e+00 1.046561225065065104e+00 4.385861539015252497e-02 1.046561225065065104e+00 -2.165617310394484463e+00
9.163309000359360468e+00 -4.556066863114170973e-01 6.200558254969725620e-05 -4.556066863114170973e-01 4.437005810354994750e+00 8.792804976097402525e-01 6.200558254969725620e-05 8.792804976097402525e-01 -1.835819951076403278e+00
8.796039600653744017e+00 -4.605361301241180372e-01 -4.947012061090012847e-02 -4.605361301241180372e-01 4.572932381567689220e+00 7.083931121027745581e-01 -4.947012061090012847e-02 7.083931121027745581e-01 -1.469480635109033484e+00
8.431756803174272008e+00 -4.765232361581817067e-01 -1.061845601163565467e-01 -4.765232361581817067e-01 4.721787116741995582e+00 5.367926623964873745e-01 -1.061845601163565467e-01 5.367926623964873745e-01 -1.061525238987058639e+00
8.048128263939297256e+00 -5.034439932485085256e-01 -1.674357414116991460e-01 -5.034439932485085256e-01 4.857248646085567501e+00 3.630013487734443101e-01 -1.674357414116991460e-01 3.630013487734443101e-01 -6.446410389779274608e-01
7.652160613776930020e+00 -5.392005458521673678e-01 -2.318595416808346132e-01 -5.392005458521673678e-01 4.976526718383667891e+00 1.900367762510637992e-01 -2.318595416808346132e-01 1.900367762510637992e-01 -2.290382876748233709e-01
7.262848229474896833e+00 -5.830074899235284658e-01 -3.008924235861641927e-01 -5.830074899235284658e-01 5.102212034211904168e+00 2.146426582595353447e-02 -3.008924235861641927e-01 2.146426582595353447e-02 2.087107908622809482e-01
6.887125402015006337e+00 -6.349268310451415820e-01 -3.728085650800547768e-01 -6.349268310451415820e-01 5.229013450526035278e+00 -1.421374637314226641e-01 -3.728085650800547768e-01 -1.421374637314226641e-01 6.413754116303100883e-01
6.522635919260369342e+00 -6.931087360042741397e-01 -4.466675481605024145e-01 -6.931087360042741397e-01 5.353262303691870727e+00 -2.990425903734315605e-01 -4.466675481605024145e-01 -2.990425903734315605e-01 1.069534293399727831e+00
6.170733569763321213e+00 -7.561477449297996367e-01 -5.217356401006691957e-01 -7.561477449297996367e-01 5.469822464621543645e+00 -4.473909466235822530e-01 -5.217356401006691957e-01 -4.473909466235822530e-01 1.482357127751853909e+00
5.826054870633312177e+00 -8.259866994082754044e-01 -5.977338157790815787e-01 -8.259866994082754044e-01 5.575324963329853389e+00 -5.877199141973055152e-01 -5.977338157790815787e-01 -5.877199141973055152e-01 1.896885115624096674e+00
5.491183387809914329e+00 -8.977168241545168126e-01 -6.719544980910691079e-01 -8.977168241545168126e-01 5.665574088730936708e+00 -7.181796598818683819e-01 -6.719544980910691079e-01 -7.181796598818683819e-01 2.277113682082598789e+00
5.169178063365577280e+00 -9.720098463128123978e-01 -7.447903890594468335e-01 -9.720098463128123978e-01 5.739443406075142917e+00 -8.351015200430809138e-01 -7.447903890594468335e-01 -8.351015200430809138e-01 2.626835501926648941e+00
4.879705001232315986e+00 -1.039234232060442409e+00 -8.127071704788818574e-01 -1.039234232060442409e+00 5.805572359864395793e+00 -9.286369413192991917e-01 -8.127071704788818574e-01 -9.286369413192991917e-01 2.874113765134841625e+00
4.617018350760523582e+00 -1.109331543132875186e+00 -8.803965980956347526e-01 -1.109331543132875186e+00 5.878201565557607644e+00 -1.017552946695565064e+00 -8.803965980956347526e-01 -1.017552946695565064e+00 3.124636987163135426e+00
4.375992317126091713e+00 -1.177124313387210908e+00 -9.456058024103995985e-01 -1.177124313387210908e+00 5.942077649847553822e+00 -1.092941400812238673e+00 -9.456058024103995985e-01 -1.092941400812238673e+00 3.329224406785861401e+00
4.134852606590319724e+00 -1.243873323001960074e+00 -1.006567624320510390e+00 -1.243873323001960074e+00 5.970765566040546979e+00 -1.154264921953889189e+00 -1.006567624320510390e+00 -1.154264921953889189e+00 3.473852428083030297e+00