9.079999999999999530e-03 2.276920000000000055e+00 1.619790000000000063e+00 -1.968190000000000106e+00 5.701520000000000366e+00 1.619790000000000063e+00 3.963309999999999889e+00 2.276920000000000055e+00 1.619790000000000063e+00 1.986040000000000028e+00 5.701520000000000366e+00 1.619790000000000063e+00 7.905020000000000380e+00 3.550000000000000204e-03 5.929079999999999906e+00 5.927749999999999631e+00 3.428139999999999965e+00 5.929079999999999906e+00 3.950790000000000024e+00 3.550000000000000204e-03 5.929079999999999906e+00 1.973519999999999941e+00 3.428139999999999965e+00 5.929079999999999906e+00 1.982369999999999965e+00 1.141229999999999967e+00 2.630700000000000260e-01 5.100000000000000366e-03 4.565820000000000434e+00 2.630700000000000260e-01 5.936600000000000321e+00 1.141229999999999967e+00 2.630700000000000260e-01 3.959330000000000016e+00 4.565820000000000434e+00 2.630700000000000260e-01 -1.068999999999999985e-02 2.289190000000000058e+00 4.199580000000000091e+00 -1.987959999999999949e+00 5.713779999999999859e+00 4.199580000000000091e+00 3.943540000000000045e+00 2.289190000000000058e+00 4.199580000000000091e+00 1.966269999999999962e+00 5.713779999999999859e+00 4.199580000000000091e+00 1.976620000000000044e+00 1.138260000000000050e+00 7.367849999999999788e+00 -6.499999999999999702e-04 4.562850000000000072e+00 7.367849999999999788e+00 5.930850000000000399e+00 1.138260000000000050e+00 7.367849999999999788e+00 3.953580000000000094e+00 4.562850000000000072e+00 7.367849999999999788e+00
6.479999999999999649e-03 2.273270000000000124e+00 1.619129999999999958e+00 -1.958369999999999944e+00 5.694810000000000372e+00 1.615380000000000038e+00 3.969809999999999839e+00 2.271370000000000111e+00 1.621199999999999974e+00 1.979519999999999946e+00 5.704539999999999722e+00 1.623820000000000041e+00 3.951579999999999870e+00 6.849050000000000082e+00 5.929280000000000328e+00 -1.978439999999999976e+00 3.430130000000000123e+00 5.929829999999999934e+00 3.953139999999999876e+00 3.059999999999999786e-03 5.934149999999999814e+00 1.981770000000000032e+00 3.433279999999999887e+00 5.930089999999999861e+00 1.979219999999999979e+00 1.130679999999999907e+00 2.634900000000000020e-01 2.999999999999999737e-04 4.568419999999999703e+00 2.616299999999999737e-01 5.926070000000000171e+00 1.145680000000000032e+00 2.529500000000000082e-01 3.945160000000000000e+00 4.565649999999999764e+00 2.543599999999999750e-01 -3.020000000000000115e-03 2.295139999999999958e+00 4.207189999999999763e+00 -1.991810000000000080e+00 5.720970000000000333e+00 4.207069999999999865e+00 3.940179999999999794e+00 2.282389999999999919e+00 4.204279999999999795e+00 1.961170000000000080e+00 5.704240000000000421e+00 4.199539999999999829e+00 1.993980000000000086e+00 1.142689999999999984e+00 7.358780000000000321e+00 6.700000000000000226e-04 4.583319999999999617e+00 7.374819999999999709e+00 5.923399999999999999e+00 1.141210000000000058e+00 7.366179999999999950e+00 3.948890000000000011e+00 4.556320000000000370e+00 7.360940000000000261e+00
3.880000000000000202e-03 2.269629999999999814e+00 1.618509999999999893e+00 -1.948620000000000019e+00 5.688119999999999621e+00 1.611029999999999962e+00 3.976269999999999971e+00 2.265849999999999920e+00 1.622640000000000082e+00 1.973000000000000087e+00 5.707569999999999588e+00 1.627860000000000085e+00 3.952669999999999906e+00 6.845379999999999576e+00 5.929579999999999629e+00 -1.976159999999999917e+00 3.432110000000000216e+00 5.930679999999999730e+00 3.955490000000000173e+00 2.560000000000000209e-03 5.939289999999999736e+00 1.989989999999999926e+00 3.438400000000000123e+00 5.931189999999999962e+00 1.976069999999999993e+00 1.120139999999999914e+00 2.640100000000000224e-01 -4.479999999999999608e-03 4.570969999999999978e+00 2.602800000000000114e-01 5.915580000000000283e+00 1.150099999999999900e+00 2.429300000000000070e-01 3.931020000000000181e+00 4.565470000000000361e+00 2.457999999999999907e-01 4.649999999999999620e-03 2.301070000000000171e+00 4.214660000000000295e+00 -1.995640000000000081e+00 5.728139999999999787e+00 4.214409999999999989e+00 3.936850000000000183e+00 2.275599999999999845e+00 4.208840000000000359e+00 1.956090000000000106e+00 5.694720000000000226e+00 4.199399999999999800e+00 2.011270000000000113e+00 1.147129999999999983e+00 7.349549999999999805e+00 1.979999999999999989e-03 4.603740000000000165e+00 7.381610000000000227e+00 5.915989999999999860e+00 1.144179999999999975e+00 7.364349999999999952e+00 3.944209999999999994e+00 4.549820000000000420e+00 7.353880000000000194e+00
1.270000000000000078e-03 2.265989999999999949e+00 1.617930000000000090e+00 -1.938960000000000017e+00 5.681420000000000137e+00 1.606770000000000032e+00 3.982670000000000154e+00 2.260380000000000056e+00 1.624120000000000008e+00 1.966499999999999915e+00 5.710609999999999964e+00 1.631899999999999906e+00 3.953759999999999941e+00 6.841739999999999711e+00 5.929999999999999716e+00 -1.973850000000000104e+00 3.434099999999999930e+00 5.931610000000000049e+00 3.957860000000000156e+00 2.050000000000000173e-03 5.944469999999999921e+00 1.998150000000000093e+00 3.443499999999999783e+00 5.932389999999999830e+00 1.972939999999999916e+00 1.109650000000000025e+00 2.646399999999999864e-01 -9.190000000000000252e-03 4.573459999999999859e+00 2.590000000000000080e-01 5.905160000000000409e+00 1.154470000000000107e+00 2.330500000000000071e-01 3.916939999999999866e+00 4.565269999999999939e+00 2.374199999999999922e-01 1.229000000000000058e-02 2.306989999999999874e+00 4.221980000000000288e+00 -1.999449999999999950e+00 5.735269999999999868e+00 4.221560000000000201e+00 3.933570000000000011e+00 2.268810000000000215e+00 4.213239999999999874e+00 1.951030000000000042e+00 5.685249999999999915e+00 4.199160000000000004e+00 2.028439999999999799e+00 1.151589999999999892e+00 7.340209999999999901e+00 3.299999999999999982e-03 4.624039999999999928e+00 7.388200000000000323e+00 5.908669999999999867e+00 1.147159999999999958e+00 7.362350000000000172e+00 3.939569999999999794e+00 4.543389999999999596e+00 7.346720000000000361e+00
-1.340000000000000045e-03 2.262360000000000149e+00 1.617390000000000105e+00 -1.929450000000000109e+00 5.674730000000000274e+00 1.602600000000000025e+00 3.988980000000000192e+00 2.254989999999999828e+00 1.625629999999999908e+00 1.960040000000000004e+00 5.713659999999999961e+00 1.635909999999999975e+00 3.954829999999999846e+00 6.838149999999999729e+00 5.930530000000000079e+00 -1.971510000000000096e+00 3.436100000000000154e+00 5.932610000000000383e+00 3.960249999999999826e+00 1.549999999999999946e-03 5.949659999999999727e+00 2.006209999999999827e+00 3.448589999999999822e+00 5.933670000000000222e+00 1.969829999999999970e+00 1.099239999999999995e+00 2.654000000000000248e-01 -1.382000000000000069e-02 4.575849999999999973e+00 2.577800000000000091e-01 5.894849999999999923e+00 1.158770000000000078e+00 2.232999999999999985e-01 3.902930000000000010e+00 4.565050000000000274e+00 2.292599999999999916e-01 1.989000000000000143e-02 2.312870000000000203e+00 4.229129999999999612e+00 -2.003229999999999844e+00 5.742340000000000444e+00 4.228480000000000238e+00 3.930349999999999788e+00 2.262039999999999829e+00 4.217430000000000234e+00 1.945980000000000043e+00 5.675839999999999996e+00 4.198809999999999931e+00 2.045409999999999950e+00 1.156069999999999931e+00 7.330790000000000362e+00 4.629999999999999567e-03 4.644180000000000419e+00 7.394599999999999618e+00 5.901489999999999903e+00 1.150160000000000071e+00 7.360199999999999854e+00 3.935010000000000119e+00 4.537069999999999936e+00 7.339500000000000135e+00
-3.950000000000000386e-03 2.258710000000000218e+00 1.616889999999999938e+00 -1.920139999999999958e+00 5.668040000000000411e+00 1.598559999999999981e+00 3.995169999999999888e+00 2.249690000000000190e+00 1.627180000000000071e+00 1.953619999999999912e+00 5.716700000000000337e+00 1.639890000000000070e+00 3.955880000000000063e+00 6.834620000000000140e+00 5.931169999999999831e+00 -1.969119999999999981e+00 3.438109999999999999e+00 5.933690000000000353e+00 3.962660000000000071e+00 1.039999999999999909e-03 5.954819999999999780e+00 2.014149999999999885e+00 3.453640000000000043e+00 5.935019999999999740e+00 1.966730000000000089e+00 1.088910000000000045e+00 2.662800000000000167e-01 -1.832999999999999907e-02 4.578109999999999680e+00 2.566100000000000048e-01 5.884669999999999845e+00 1.162989999999999968e+00 2.137100000000000111e-01 3.888999999999999790e+00 4.564799999999999969e+00 2.213700000000000112e-01 2.742999999999999952e-02 2.318709999999999827e+00 4.236089999999999911e+00 -2.006990000000000052e+00 5.749340000000000117e+00 4.235149999999999970e+00 3.927200000000000024e+00 2.255269999999999886e+00 4.221409999999999663e+00 1.940960000000000019e+00 5.666509999999999714e+00 4.198369999999999713e+00 2.062139999999999862e+00 1.160570000000000102e+00 7.321310000000000429e+00 5.960000000000000020e-03 4.664089999999999847e+00 7.400820000000000398e+00 5.894490000000000229e+00 1.153189999999999937e+00 7.357920000000000016e+00 3.930550000000000210e+00 4.530879999999999797e+00 7.332250000000000156e+00
-6.570000000000000319e-03 2.255059999999999842e+00 1.616430000000000033e+00 -1.911070000000000046e+00 5.661349999999999660e+00 1.594670000000000032e+00 4.001229999999999620e+00 2.244489999999999874e+00 1.628759999999999986e+00 1.947249999999999925e+00 5.719759999999999955e+00 1.643790000000000084e+00 3.956920000000000215e+00 6.831179999999999808e+00 5.931949999999999612e+00 -1.966660000000000075e+00 3.440129999999999910e+00 5.934829999999999828e+00 3.965120000000000200e+00 5.199999999999999544e-04 5.959920000000000329e+00 2.021939999999999849e+00 3.458650000000000002e+00 5.936449999999999783e+00 1.963649999999999896e+00 1.078689999999999927e+00 2.672999999999999821e-01 -2.270000000000000143e-02 4.580219999999999736e+00 2.554600000000000204e-01 5.874649999999999928e+00 1.167100000000000026e+00 2.042599999999999971e-01 3.875169999999999781e+00 4.564530000000000420e+00 2.137600000000000056e-01 3.490999999999999659e-02 2.324510000000000076e+00 4.242849999999999788e+00 -2.010699999999999932e+00 5.756249999999999645e+00 4.241539999999999644e+00 3.924150000000000027e+00 2.248520000000000074e+00 4.225130000000000052e+00 1.935950000000000060e+00 5.657280000000000086e+00 4.197840000000000238e+00 2.078559999999999963e+00 1.165110000000000090e+00 7.311819999999999986e+00 7.309999999999999658e-03 4.683720000000000105e+00 7.406869999999999621e+00 5.887719999999999843e+00 1.156239999999999934e+00 7.355509999999999771e+00 3.926219999999999821e+00 4.524849999999999817e+00 7.325020000000000309e+00
-9.180000000000000659e-03 2.251399999999999846e+00 1.616000000000000103e+00 -1.902269999999999905e+00 5.654650000000000176e+00 1.590950000000000086e+00 4.007130000000000081e+00 2.239419999999999966e+00 1.630390000000000006e+00 1.940940000000000110e+00 5.722819999999999574e+00 1.647620000000000084e+00 3.957930000000000170e+00 6.827829999999999622e+00 5.932850000000000179e+00 -1.964129999999999932e+00 3.442180000000000017e+00 5.936029999999999696e+00 3.967630000000000212e+00 1.000000000000000082e-05 5.964920000000000222e+00 2.029560000000000031e+00 3.463620000000000143e+00 5.937920000000000087e+00 1.960590000000000055e+00 1.068599999999999994e+00 2.684699999999999864e-01 -2.689000000000000071e-02 4.582139999999999880e+00 2.543199999999999905e-01 5.864819999999999922e+00 1.171100000000000030e+00 1.949700000000000044e-01 3.861450000000000049e+00 4.564219999999999722e+00 2.064799999999999969e-01 4.229999999999999732e-02 2.330259999999999998e+00 4.249399999999999622e+00 -2.014369999999999994e+00 5.763069999999999915e+00 4.247620000000000395e+00 3.921199999999999797e+00 2.241769999999999818e+00 4.228570000000000384e+00 1.930960000000000010e+00 5.648170000000000357e+00 4.197219999999999729e+00 2.094640000000000057e+00 1.169710000000000027e+00 7.302349999999999675e+00 8.680000000000000215e-03 4.703030000000000044e+00 7.412759999999999572e+00 5.881219999999999892e+00 1.159329999999999972e+00 7.352999999999999758e+00 3.922060000000000102e+00 4.519020000000000259e+00 7.317840000000000344e+00
-1.179999999999999973e-02 2.247710000000000097e+00 1.615609999999999991e+00 -1.893780000000000019e+00 5.647960000000000313e+00 1.587420000000000053e+00 4.012850000000000250e+00 2.234490000000000087e+00 1.632060000000000066e+00 1.934690000000000021e+00 5.725880000000000081e+00 1.651350000000000096e+00 3.958909999999999929e+00 6.824589999999999712e+00 5.933880000000000265e+00 -1.961519999999999930e+00 3.444269999999999943e+00 5.937269999999999825e+00 1.566999999999999990e-02 6.848679999999999879e+00 5.969789999999999708e+00 2.036970000000000169e+00 3.468539999999999957e+00 5.939440000000000275e+00 1.957540000000000058e+00 1.058650000000000091e+00 2.697800000000000198e-01 -3.088000000000000120e-02 4.583849999999999980e+00 2.531700000000000061e-01 5.855179999999999829e+00 1.174970000000000070e+00 1.858200000000000129e-01 3.847809999999999953e+00 4.563880000000000159e+00 1.995399999999999952e-01 4.961000000000000132e-02 2.335960000000000036e+00 4.255729999999999791e+00 -2.017999999999999794e+00 5.769779999999999909e+00 4.253359999999999808e+00 3.918369999999999909e+00 2.235030000000000072e+00 4.231720000000000148e+00 1.925969999999999960e+00 5.639179999999999637e+00 4.196509999999999962e+00 2.110329999999999817e+00 1.174369999999999914e+00 7.292930000000000135e+00 1.007000000000000083e-02 4.721980000000000288e+00 7.418520000000000003e+00 5.875020000000000131e+00 1.162469999999999892e+00 7.350389999999999979e+00 3.918079999999999785e+00 4.513410000000000366e+00 7.310769999999999769e+00
-1.443000000000000012e-02 2.244000000000000217e+00 1.615259999999999918e+00 -1.885639999999999983e+00 5.641250000000000320e+00 1.584100000000000064e+00 4.018369999999999997e+00 2.229699999999999793e+00 1.633780000000000010e+00 1.928509999999999946e+00 5.728959999999999830e+00 1.654970000000000052e+00 3.959859999999999935e+00 6.821469999999999700e+00 5.935050000000000381e+00 -1.958800000000000097e+00 3.446390000000000065e+00 5.938550000000000217e+00 1.833999999999999866e-02 6.848160000000000025e+00 5.974479999999999791e+00 2.044160000000000199e+00 3.473399999999999821e+00 5.940979999999999706e+00 1.954499999999999904e+00 1.048839999999999995e+00 2.712499999999999911e-01 -3.463999999999999718e-02 4.585320000000000285e+00 2.519799999999999818e-01 5.845760000000000289e+00 1.178700000000000081e+00 1.768099999999999949e-01 3.834270000000000067e+00 4.563489999999999824e+00 1.929599999999999926e-01 5.682999999999999857e-02 2.341610000000000191e+00 4.261849999999999916e+00 -2.021570000000000089e+00 5.776370000000000005e+00 4.258759999999999657e+00 3.915669999999999984e+00 2.228289999999999882e+00 4.234549999999999592e+00 1.920989999999999975e+00 5.630329999999999835e+00 4.195719999999999672e+00 2.125579999999999803e+00 1.179110000000000102e+00 7.283579999999999721e+00 1.148000000000000062e-02 4.740540000000000198e+00 7.424190000000000289e+00 5.869159999999999933e+00 1.165659999999999918e+00 7.347710000000000186e+00 3.914340000000000153e+00 4.508040000000000269e+00 7.303840000000000110e+00
5.790000000000000008e-02 2.317099999999999937e+00 1.596400000000000041e+00 -1.808009999999999895e+00 5.743120000000000225e+00 1.603210000000000024e+00 3.938689999999999802e+00 2.316959999999999908e+00 1.601599999999999913e+00 2.084579999999999878e+00 5.740219999999999878e+00 1.603699999999999903e+00 4.006759999999999877e+00 7.005289999999999573e+00 5.860660000000000203e+00 5.871389999999999887e+00 3.587979999999999947e+00 5.863760000000000083e+00 1.180800000000000044e-01 7.004089999999999705e+00 5.859519999999999840e+00 1.978129999999999944e+00 3.589039999999999786e+00 5.864869999999999806e+00 1.975500000000000034e+00 1.147829999999999906e+00 2.601800000000000224e-01 1.136500000000000010e-01 4.570890000000000342e+00 2.603300000000000058e-01 5.863570000000000171e+00 1.147599999999999953e+00 2.630899999999999905e-01 4.007119999999999571e+00 4.576509999999999856e+00 2.655799999999999828e-01 2.156999999999999890e-02 2.408549999999999969e+00 4.152660000000000018e+00 -1.844130000000000047e+00 5.825330000000000119e+00 4.154099999999999682e+00 3.909730000000000150e+00 2.399540000000000006e+00 4.153260000000000396e+00 2.048900000000000166e+00 5.820159999999999556e+00 4.152280000000000193e+00 1.920609999999999928e+00 1.338989999999999903e+00 7.286970000000000169e+00 5.421000000000000124e-02 4.760460000000000136e+00 7.283739999999999881e+00 5.811009999999999565e+00 1.342330000000000023e+00 7.292849999999999611e+00 3.950239999999999974e+00 4.764029999999999987e+00 7.287379999999999747e+00
5.836999999999999827e-02 2.316629999999999967e+00 1.602880000000000082e+00 -1.806610000000000049e+00 5.737099999999999866e+00 1.601690000000000058e+00 3.932230000000000114e+00 2.317520000000000024e+00 1.605679999999999996e+00 2.090419999999999945e+00 5.737330000000000041e+00 1.602249999999999952e+00 4.001859999999999751e+00 7.003860000000000419e+00 5.864819999999999922e+00 5.867160000000000153e+00 3.594430000000000014e+00 5.869340000000000224e+00 1.140400000000000025e-01 7.003219999999999779e+00 5.864519999999999733e+00 1.981519999999999948e+00 3.592119999999999980e+00 5.866970000000000240e+00 1.971940000000000026e+00 1.149899999999999922e+00 2.589199999999999835e-01 1.091700000000000031e-01 4.568209999999999660e+00 2.677399999999999780e-01 5.868999999999999773e+00 1.137210000000000054e+00 2.583699999999999886e-01 4.010729999999999684e+00 4.575849999999999973e+00 2.503099999999999770e-01 2.255000000000000060e-02 2.415249999999999897e+00 4.144770000000000287e+00 -1.836840000000000028e+00 5.825479999999999769e+00 4.142590000000000217e+00 3.910670000000000091e+00 2.403189999999999937e+00 4.153080000000000105e+00 2.046889999999999876e+00 5.831489999999999618e+00 4.142719999999999736e+00 1.921359999999999957e+00 1.334759999999999946e+00 7.276419999999999888e+00 7.464999999999999414e-02 4.768519999999999648e+00 7.295160000000000089e+00 5.802679999999999616e+00 1.340559999999999974e+00 7.307999999999999829e+00 3.941609999999999836e+00 4.754100000000000215e+00 7.278850000000000264e+00
5.877999999999999892e-02 2.316139999999999866e+00 1.609390000000000098e+00 -1.805250000000000021e+00 5.731069999999999887e+00 1.600179999999999936e+00 3.925790000000000113e+00 2.318060000000000009e+00 1.609750000000000014e+00 2.096220000000000194e+00 5.734409999999999563e+00 1.600800000000000001e+00 3.996960000000000068e+00 7.002480000000000260e+00 5.869049999999999656e+00 5.862980000000000302e+00 3.600859999999999950e+00 5.875000000000000000e+00 1.100300000000000028e-01 7.002399999999999736e+00 5.869589999999999641e+00 1.984909999999999952e+00 3.595200000000000173e+00 5.869130000000000180e+00 1.968429999999999902e+00 1.151999999999999913e+00 2.576399999999999801e-01 1.047600000000000059e-01 4.565579999999999750e+00 2.751100000000000212e-01 5.874430000000000263e+00 1.126910000000000078e+00 2.536700000000000066e-01 4.014350000000000307e+00 4.575190000000000090e+00 2.350399999999999989e-01 2.352999999999999883e-02 2.421930000000000138e+00 4.136849999999999916e+00 -1.829560000000000075e+00 5.825639999999999930e+00 4.131039999999999601e+00 3.911610000000000031e+00 2.406829999999999803e+00 4.152820000000000178e+00 2.044900000000000162e+00 5.842810000000000059e+00 4.133119999999999905e+00 1.922069999999999945e+00 1.330489999999999950e+00 7.265830000000000233e+00 9.501999999999999336e-02 4.776519999999999655e+00 7.306510000000000282e+00 5.794349999999999667e+00 1.338750000000000107e+00 7.323010000000000019e+00 3.932980000000000143e+00 4.744159999999999933e+00 7.270290000000000141e+00
5.913000000000000200e-02 2.315609999999999946e+00 1.615879999999999983e+00 -1.803940000000000099e+00 5.725050000000000416e+00 1.598680000000000101e+00 3.919369999999999798e+00 2.318579999999999863e+00 1.613779999999999992e+00 2.101980000000000182e+00 5.731469999999999843e+00 1.599329999999999918e+00 3.992049999999999876e+00 7.001179999999999737e+00 5.873339999999999783e+00 5.858869999999999578e+00 3.607270000000000199e+00 5.880729999999999791e+00 1.060900000000000037e-01 7.001619999999999955e+00 5.874710000000000321e+00 1.988289999999999891e+00 3.598279999999999923e+00 5.871279999999999610e+00 1.965000000000000080e+00 1.154109999999999969e+00 2.563599999999999768e-01 1.004499999999999976e-01 4.562999999999999723e+00 2.824300000000000144e-01 5.879839999999999733e+00 1.116730000000000000e+00 2.490100000000000091e-01 4.017990000000000173e+00 4.574530000000000207e+00 2.198199999999999876e-01 2.452000000000000013e-02 2.428580000000000183e+00 4.128989999999999938e+00 -1.822310000000000096e+00 5.825809999999999711e+00 4.119530000000000136e+00 3.912570000000000103e+00 2.410470000000000113e+00 4.152510000000000367e+00 2.042920000000000069e+00 5.854110000000000369e+00 4.123540000000000205e+00 1.922700000000000076e+00 1.326179999999999914e+00 7.255230000000000068e+00 1.152600000000000013e-01 4.784419999999999895e+00 7.317770000000000330e+00 5.786030000000000229e+00 1.336920000000000108e+00 7.337860000000000049e+00 3.924380000000000202e+00 4.734230000000000160e+00 7.261779999999999902e+00
5.940000000000000141e-02 2.315020000000000078e+00 1.622330000000000050e+00 -1.802689999999999904e+00 5.719039999999999679e+00 1.597140000000000004e+00 3.913009999999999877e+00 2.319080000000000030e+00 1.617739999999999956e+00 2.107709999999999972e+00 5.728500000000000369e+00 1.597820000000000018e+00 3.987119999999999997e+00 6.999950000000000117e+00 5.877650000000000041e+00 5.854879999999999640e+00 3.613640000000000185e+00 5.886549999999999727e+00 1.022300000000000014e-01 7.000890000000000057e+00 5.879859999999999864e+00 1.991619999999999946e+00 3.601350000000000051e+00 5.873400000000000176e+00 1.961629999999999985e+00 1.156230000000000091e+00 2.550999999999999934e-01 9.626999999999999447e-02 4.560459999999999958e+00 2.896699999999999831e-01 5.885209999999999830e+00 1.106719999999999926e+00 2.444199999999999984e-01 4.021639999999999660e+00 4.573830000000000062e+00 2.046800000000000008e-01 2.549999999999999836e-02 2.435179999999999900e+00 4.121269999999999989e+00 -1.815099999999999936e+00 5.825999999999999623e+00 4.108100000000000307e+00 3.913539999999999797e+00 2.414109999999999978e+00 4.152149999999999785e+00 2.040970000000000173e+00 5.865389999999999660e+00 4.114020000000000010e+00 1.923229999999999995e+00 1.321849999999999969e+00 7.244659999999999656e+00 1.353199999999999958e-01 4.792209999999999859e+00 7.328929999999999723e+00 5.777750000000000163e+00 1.335080000000000044e+00 7.352479999999999905e+00 3.915849999999999831e+00 4.724370000000000402e+00 7.253339999999999677e+00
5.958000000000000101e-02 2.314369999999999816e+00 1.628670000000000062e+00 -1.801530000000000076e+00 5.713059999999999583e+00 1.595539999999999958e+00 3.906709999999999905e+00 2.319539999999999935e+00 1.621569999999999956e+00 2.113399999999999945e+00 5.725489999999999746e+00 1.596240000000000103e+00 3.982159999999999922e+00 6.998809999999999754e+00 5.881990000000000052e+00 5.851029999999999731e+00 3.619949999999999779e+00 5.892430000000000057e+00 9.847000000000000197e-02 7.000189999999999912e+00 5.885019999999999918e+00 1.994890000000000052e+00 3.604389999999999983e+00 5.875449999999999839e+00 1.958339999999999970e+00 1.158339999999999925e+00 2.538599999999999746e-01 9.225999999999999479e-02 4.557959999999999567e+00 2.968199999999999728e-01 5.890520000000000422e+00 1.096919999999999895e+00 2.399399999999999866e-01 4.025299999999999656e+00 4.573089999999999655e+00 1.896599999999999953e-01 2.647000000000000047e-02 2.441749999999999865e+00 4.113780000000000214e+00 -1.807949999999999946e+00 5.826209999999999667e+00 4.096840000000000259e+00 3.914520000000000000e+00 2.417739999999999778e+00 4.151779999999999582e+00 2.039039999999999964e+00 5.876629999999999576e+00 4.104610000000000092e+00 1.923629999999999951e+00 1.317490000000000050e+00 7.234140000000000015e+00 1.551700000000000024e-01 4.799850000000000172e+00 7.339970000000000105e+00 5.769540000000000113e+00 1.333250000000000046e+00 7.366869999999999585e+00 3.907399999999999984e+00 4.714599999999999902e+00 7.245029999999999859e+00
5.967000000000000082e-02 2.313649999999999984e+00 1.634889999999999954e+00 -1.800459999999999949e+00 5.707130000000000258e+00 1.593869999999999898e+00 3.900510000000000144e+00 2.319970000000000088e+00 1.625250000000000083e+00 2.119079999999999853e+00 5.722439999999999749e+00 1.594559999999999977e+00 3.977160000000000029e+00 6.997770000000000046e+00 5.886330000000000062e+00 5.847360000000000113e+00 3.626189999999999802e+00 5.898369999999999891e+00 9.482000000000000151e-02 6.999530000000000030e+00 5.890159999999999840e+00 1.998070000000000013e+00 3.607400000000000162e+00 5.877369999999999983e+00 1.955130000000000035e+00 1.160430000000000073e+00 2.526700000000000057e-01 8.844000000000000472e-02 4.555489999999999817e+00 3.038600000000000190e-01 5.895739999999999981e+00 1.087350000000000039e+00 2.355899999999999939e-01 4.028950000000000031e+00 4.572280000000000122e+00 1.747799999999999909e-01 2.742999999999999952e-02 2.448280000000000012e+00 4.106589999999999741e+00 -1.800869999999999971e+00 5.826450000000000351e+00 4.085799999999999876e+00 3.915519999999999889e+00 2.421370000000000022e+00 4.151419999999999888e+00 2.037150000000000016e+00 5.887830000000000119e+00 4.095369999999999955e+00 1.923869999999999969e+00 1.313109999999999999e+00 7.223709999999999631e+00 1.747499999999999887e-01 4.807349999999999568e+00 7.350880000000000081e+00 5.761420000000000208e+00 1.331439999999999957e+00 7.380989999999999718e+00 3.899090000000000167e+00 4.704959999999999809e+00 7.236900000000000333e+00
5.965000000000000163e-02 2.312829999999999941e+00 1.640930000000000000e+00 -1.799509999999999943e+00 5.701240000000000308e+00 1.592070000000000096e+00 3.894400000000000084e+00 2.320370000000000044e+00 1.628730000000000011e+00 2.124740000000000073e+00 5.719339999999999868e+00 1.592750000000000110e+00 3.972100000000000186e+00 6.996839999999999726e+00 5.890670000000000073e+00 5.843899999999999650e+00 3.632340000000000124e+00 5.904379999999999740e+00 9.131999999999999840e-02 6.998890000000000278e+00 5.895270000000000010e+00 2.001119999999999788e+00 3.610360000000000014e+00 5.879139999999999588e+00 1.952010000000000023e+00 1.162509999999999932e+00 2.515399999999999858e-01 8.483999999999999875e-02 4.553040000000000198e+00 3.107699999999999907e-01 5.900859999999999772e+00 1.078040000000000109e+00 2.313800000000000023e-01 4.032589999999999897e+00 4.571410000000000196e+00 1.600800000000000001e-01 2.837999999999999898e-02 2.454769999999999897e+00 4.099800000000000111e+00 -1.793870000000000076e+00 5.826730000000000409e+00 4.075050000000000061e+00 3.916529999999999845e+00 2.425009999999999888e+00 4.151080000000000325e+00 2.035299999999999887e+00 5.898990000000000400e+00 4.086339999999999861e+00 1.923920000000000075e+00 1.308729999999999949e+00 7.213390000000000413e+00 1.940500000000000003e-01 4.814680000000000071e+00 7.361670000000000158e+00 5.753389999999999560e+00 1.329679999999999973e+00 7.394820000000000171e+00 3.890930000000000000e+00 4.695500000000000007e+00 7.229000000000000092e+00
5.952999999999999958e-02 2.311900000000000066e+00 1.646760000000000002e+00 -1.798689999999999900e+00 5.695409999999999862e+00 1.590140000000000109e+00 3.888409999999999922e+00 2.320720000000000116e+00 1.631999999999999895e+00 2.130399999999999849e+00 5.716169999999999973e+00 1.590799999999999992e+00 3.966969999999999885e+00 6.996010000000000062e+00 5.894980000000000331e+00 5.840670000000000250e+00 3.638409999999999922e+00 5.910440000000000360e+00 8.798000000000000265e-02 6.998280000000000278e+00 5.900339999999999918e+00 2.004030000000000200e+00 3.613259999999999916e+00 5.880690000000000417e+00 1.948970000000000091e+00 1.164560000000000040e+00 2.504799999999999804e-01 8.147999999999999687e-02 4.550609999999999822e+00 3.175399999999999889e-01 5.905879999999999797e+00 1.069010000000000016e+00 2.273300000000000043e-01 4.036220000000000141e+00 4.570439999999999614e+00 1.455700000000000049e-01 2.930999999999999925e-02 2.461230000000000029e+00 4.093479999999999563e+00 -1.786960000000000104e+00 5.827040000000000219e+00 4.064630000000000187e+00 3.917569999999999997e+00 2.428650000000000198e+00 4.150780000000000136e+00 2.033490000000000020e+00 5.910129999999999661e+00 4.077549999999999564e+00 1.923759999999999915e+00 1.304340000000000055e+00 7.203199999999999825e+00 2.130400000000000071e-01 4.821830000000000283e+00 7.372340000000000337e+00 5.745459999999999567e+00 1.327960000000000029e+00 7.408350000000000435e+00 3.882960000000000189e+00 4.686250000000000249e+00 7.221390000000000420e+00