-7.214139473999999552e+01
-7.212941781000000674e+01
-7.209953104000000224e+01
-7.205192902999999660e+01
-7.198704886999999530e+01
-7.190556381999999758e+01
-7.180839917999999500e+01
-7.169665064000000143e+01
-7.157168219000000420e+01
-7.143498309000000290e+01
-7.189628797000000304e+01
-7.189987904999999557e+01
-7.188369118999999330e+01
-7.184804791999999907e+01
-7.179360678999999834e+01
-7.172140287000000569e+01
-7.163286189999999465e+01
-7.152981900000000337e+01
-7.141387532000000249e+01
-7.128745005000000390e+01
-7.177771491999999398e+01
-7.176553452999999649e+01
-7.173777852000000621e+01
-7.169462124000000358e+01
-7.163644524000000047e+01
-7.156378297999999916e+01
-7.147729105000000516e+01
-7.137791439999999454e+01
-7.126664510000000519e+01
-7.114459655999999654e+01
-7.198911069000000396e+01
-7.198125693999999442e+01
-7.195814122000000168e+01
-7.192016796000000056e+01
-7.186805284000000427e+01
-7.180251590999999678e+01
-7.172486415000000193e+01
-7.163613225000000284e+01
-7.153777976000000649e+01
-7.143140223999999705e+01
-7.191205363000000261e+01
-7.191788275999999769e+01
-7.191376875999999640e+01
-7.189968032000000164e+01
-7.187649530999999570e+01
-7.184455522999999744e+01
-7.180452778999999452e+01
-7.175713111999999683e+01
-7.170312816000000566e+01
-7.164332090999999991e+01
