-1.875100000000000031e-02 2.614599999999999910e-02 1.130499999999999977e-01 -1.875100000000000031e-02 2.614599999999999910e-02 1.130359999999999976e-01 -1.874899999999999831e-02 2.614599999999999910e-02 1.130499999999999977e-01 -1.874999999999999931e-02 2.614800000000000110e-02 1.130789999999999990e-01 -3.937000000000000395e-03 -1.777099999999999860e-02 2.859990000000000032e-01 -3.937000000000000395e-03 -1.777199999999999960e-02 2.859990000000000032e-01 -3.938999999999999793e-03 -1.777300000000000060e-02 2.860070000000000112e-01 -3.938999999999999793e-03 -1.777199999999999960e-02 2.859900000000000220e-01 1.285799999999999964e-02 -2.427299999999999944e-02 1.942869999999999875e-01 1.285700000000000037e-02 -2.427500000000000144e-02 1.942859999999999865e-01 1.285500000000000011e-02 -2.427400000000000044e-02 1.942859999999999865e-01 1.285599999999999937e-02 -2.427599999999999897e-02 1.942859999999999865e-01 1.813499999999999834e-02 -6.662000000000000387e-03 -2.208970000000000100e-01 1.813899999999999887e-02 -6.658999999999999989e-03 -2.208930000000000060e-01 1.813599999999999934e-02 -6.662999999999999652e-03 -2.208940000000000070e-01 1.813400000000000081e-02 -6.661000000000000254e-03 -2.208940000000000070e-01 -8.155000000000000790e-03 2.247800000000000145e-02 -3.723279999999999923e-01 -8.156999999999999321e-03 2.248199999999999851e-02 -3.723299999999999943e-01 -8.155000000000000790e-03 2.248100000000000098e-02 -3.723310000000000231e-01 -8.151000000000000259e-03 2.248299999999999951e-02 -3.723259999999999903e-01
-1.511599999999999923e-02 1.912099999999999911e-02 1.154030000000000056e-01 -1.642480000000000051e-01 1.689200000000000076e-02 1.762769999999999893e-01 -1.035429999999999962e-01 9.207600000000000506e-02 1.047330000000000066e-01 2.314499999999999891e-02 2.297300000000000036e-02 4.909000000000000169e-02 -1.479199999999999959e-02 3.928799999999999654e-02 3.074370000000000158e-01 3.401499999999999663e-02 -4.915000000000000098e-03 2.689830000000000276e-01 1.359100000000000065e-02 -1.595099999999999990e-02 2.026000000000000023e-01 -9.723299999999999998e-02 -3.346999999999999975e-02 2.810130000000000128e-01 2.214700000000000002e-02 3.496699999999999808e-02 2.143069999999999975e-01 6.489399999999999336e-02 -8.188499999999999945e-02 1.753039999999999876e-01 8.324299999999999755e-02 -6.472100000000000075e-02 2.314029999999999976e-01 6.569200000000000039e-02 -2.865900000000000045e-02 2.906810000000000227e-01 -1.888799999999999854e-02 -2.717699999999999977e-02 -2.696740000000000248e-01 2.935499999999999915e-02 -4.371200000000000085e-02 -3.048170000000000046e-01 5.543399999999999717e-02 4.435999999999999839e-03 -2.833789999999999920e-01 2.688300000000000065e-02 4.204700000000000104e-02 -2.150090000000000057e-01 -1.373080000000000134e-01 2.412299999999999861e-02 -3.078949999999999743e-01 1.129999999999999928e-03 -1.057700000000000029e-01 -3.876359999999999806e-01 9.143999999999999351e-02 2.539299999999999891e-02 -3.524050000000000238e-01 4.078699999999999687e-02 8.468000000000000527e-02 -2.955650000000000222e-01
-1.053300000000000070e-02 1.230299999999999970e-02 1.168830000000000008e-01 -3.109529999999999794e-01 1.352399999999999956e-02 2.432560000000000000e-01 -1.884250000000000091e-01 1.579109999999999958e-01 9.987100000000000144e-02 6.514799999999999758e-02 1.847499999999999837e-02 -1.513800000000000041e-02 -2.674199999999999841e-02 9.563199999999999479e-02 3.259659999999999780e-01 7.053299999999999847e-02 7.655000000000000346e-03 2.498720000000000108e-01 3.380299999999999971e-02 -1.379099999999999944e-02 1.113080000000000042e-01 -1.916579999999999950e-01 -5.327199999999999991e-02 2.687069999999999736e-01 3.002499999999999961e-02 9.348399999999999765e-02 2.314400000000000068e-01 1.210750000000000021e-01 -1.410730000000000040e-01 1.512249999999999983e-01 1.536029999999999895e-01 -1.049360000000000015e-01 2.637809999999999877e-01 1.150120000000000031e-01 -3.438700000000000090e-02 3.810859999999999803e-01 -5.598700000000000204e-02 -4.783099999999999852e-02 -3.166109999999999758e-01 4.232099999999999751e-02 -8.161300000000000499e-02 -3.865100000000000202e-01 9.240600000000000203e-02 1.527200000000000085e-02 -3.467120000000000202e-01 3.473400000000000098e-02 9.098900000000000043e-02 -2.099870000000000070e-01 -2.682629999999999737e-01 2.896400000000000016e-02 -2.382539999999999936e-01 8.947000000000000092e-03 -2.353040000000000131e-01 -3.950919999999999987e-01 1.908600000000000019e-01 2.968200000000000005e-02 -3.293300000000000116e-01 9.419800000000000395e-02 1.489169999999999938e-01 -2.139330000000000120e-01
-4.924000000000000425e-03 6.046000000000000159e-03 1.183720000000000050e-01 -4.575359999999999983e-01 1.524200000000000034e-02 3.139330000000000176e-01 -2.731810000000000072e-01 2.231200000000000128e-01 9.911000000000000365e-02 1.070679999999999965e-01 1.266499999999999918e-02 -7.852599999999999858e-02 -3.952100000000000057e-02 1.509540000000000048e-01 3.429960000000000231e-01 1.055169999999999997e-01 1.988200000000000037e-02 2.295790000000000053e-01 5.665599999999999803e-02 -1.156599999999999989e-02 1.328700000000000020e-02 -2.876139999999999808e-01 -7.731300000000000672e-02 2.507739999999999969e-01 3.662300000000000277e-02 1.512709999999999888e-01 2.477749999999999952e-01 1.813589999999999924e-01 -2.017930000000000001e-01 1.242469999999999963e-01 2.238719999999999877e-01 -1.448270000000000113e-01 2.937370000000000259e-01 1.614119999999999999e-01 -4.123199999999999782e-02 4.676540000000000141e-01 -9.330700000000000105e-02 -6.878499999999999892e-02 -3.597969999999999779e-01 5.709899999999999698e-02 -1.204790000000000028e-01 -4.638550000000000173e-01 1.289589999999999903e-01 2.616500000000000076e-02 -4.083570000000000255e-01 4.191899999999999793e-02 1.403059999999999863e-01 -2.033050000000000135e-01 -4.017209999999999948e-01 3.682200000000000056e-02 -1.632730000000000015e-01 1.533900000000000020e-02 -3.669410000000000172e-01 -3.949639999999999818e-01 2.903919999999999835e-01 3.519100000000000006e-02 -3.031289999999999818e-01 1.525420000000000109e-01 2.154850000000000099e-01 -1.270709999999999895e-01
1.412999999999999977e-03 -1.749999999999999982e-04 1.182679999999999981e-01 -6.048379999999999868e-01 2.236600000000000046e-02 3.870480000000000032e-01 -3.577420000000000044e-01 2.877870000000000150e-01 1.001149999999999957e-01 1.484850000000000059e-01 5.899999999999999863e-03 -1.425549999999999873e-01 -5.322299999999999948e-02 2.054670000000000107e-01 3.563330000000000108e-01 1.392639999999999989e-01 3.193900000000000211e-02 2.061989999999999934e-01 8.234500000000000153e-02 -8.987999999999999462e-03 -9.423800000000000232e-02 -3.862789999999999835e-01 -1.057759999999999950e-01 2.240560000000000052e-01 4.197499999999999842e-02 2.079129999999999867e-01 2.621729999999999894e-01 2.452560000000000018e-01 -2.637149999999999772e-01 9.322900000000000631e-02 2.936730000000000174e-01 -1.841760000000000064e-01 3.201180000000000136e-01 2.047279999999999933e-01 -4.898600000000000176e-02 5.489800000000000235e-01 -1.305969999999999909e-01 -8.993299999999999905e-02 -3.996120000000000227e-01 7.332700000000000329e-02 -1.599119999999999986e-01 -5.369829999999999881e-01 1.648459999999999925e-01 3.714400000000000340e-02 -4.685059999999999780e-01 4.845399999999999707e-02 1.896990000000000065e-01 -1.957669999999999966e-01 -5.363850000000000007e-01 4.771199999999999747e-02 -8.300299999999999345e-02 2.043899999999999884e-02 -5.000120000000000120e-01 -3.865190000000000015e-01 3.892570000000000197e-01 4.192400000000000293e-02 -2.735119999999999774e-01 2.158229999999999871e-01 2.840860000000000052e-01 -3.495899999999999702e-02
8.484000000000000222e-03 -5.802999999999999999e-03 1.173010000000000025e-01 -7.507289999999999797e-01 3.395600000000000007e-02 4.613389999999999991e-01 -4.410399999999999876e-01 3.509479999999999822e-01 1.031579999999999997e-01 1.891140000000000043e-01 -1.871999999999999966e-03 -2.063059999999999894e-01 -6.754499999999999393e-02 2.589299999999999935e-01 3.670999999999999819e-01 1.713760000000000006e-01 4.350199999999999900e-02 1.808289999999999897e-01 1.103650000000000048e-01 -6.000000000000000125e-03 -2.087390000000000079e-01 -4.861690000000000178e-01 -1.379670000000000063e-01 1.904450000000000032e-01 4.615099999999999758e-02 2.632320000000000215e-01 2.747859999999999747e-01 3.123500000000000165e-01 -3.265959999999999974e-01 5.864699999999999774e-02 3.624269999999999992e-01 -2.227260000000000073e-01 3.432089999999999863e-01 2.449230000000000018e-01 -5.741899999999999782e-02 6.251299999999999635e-01 -1.677059999999999940e-01 -1.111069999999999974e-01 -4.361309999999999909e-01 9.074899999999999634e-02 -1.996860000000000024e-01 -6.058170000000000499e-01 1.999450000000000116e-01 4.822699999999999904e-02 -5.269650000000000167e-01 5.435299999999999854e-02 2.389350000000000085e-01 -1.875300000000000022e-01 -6.723339999999999872e-01 6.147099999999999786e-02 1.374000000000000004e-03 2.432300000000000087e-02 -6.346610000000000307e-01 -3.709899999999999864e-01 4.874439999999999884e-01 4.983499999999999736e-02 -2.413440000000000030e-01 2.840289999999999759e-01 3.546030000000000015e-01 6.158700000000000285e-02
1.626400000000000068e-02 -1.094599999999999913e-02 1.152790000000000065e-01 -8.959340000000000082e-01 5.029999999999999749e-02 5.367349999999999621e-01 -5.228070000000000217e-01 4.123089999999999811e-01 1.081379999999999980e-01 2.291769999999999918e-01 -1.057699999999999960e-02 -2.700230000000000130e-01 -8.239399999999999502e-02 3.112509999999999999e-01 3.747460000000000235e-01 2.019080000000000041e-01 5.481300000000000061e-02 1.533349999999999991e-01 1.407299999999999940e-01 -2.443999999999999992e-03 -3.306709999999999927e-01 -5.879029999999999534e-01 -1.736050000000000093e-01 1.492870000000000030e-01 4.930999999999999966e-02 3.170370000000000132e-01 2.863809999999999967e-01 3.820540000000000047e-01 -3.900279999999999858e-01 2.158699999999999855e-02 4.296710000000000251e-01 -2.602320000000000189e-01 3.638159999999999727e-01 2.822680000000000189e-01 -6.635800000000000032e-02 6.968250000000000277e-01 -2.045450000000000046e-01 -1.323610000000000064e-01 -4.691540000000000155e-01 1.092660000000000020e-01 -2.396389999999999909e-01 -6.697269999999999612e-01 2.339739999999999875e-01 5.945799999999999697e-02 -5.826510000000000300e-01 5.969700000000000006e-02 2.878129999999999855e-01 -1.781409999999999938e-01 -8.085499999999999909e-01 7.788299999999999390e-02 8.998499999999999555e-02 2.720200000000000048e-02 -7.701369999999999605e-01 -3.476020000000000221e-01 5.842319999999999736e-01 5.871099999999999930e-02 -2.061179999999999957e-01 3.568979999999999930e-01 4.266159999999999952e-01 1.627820000000000100e-01
2.452100000000000113e-02 -1.567400000000000043e-02 1.117130000000000067e-01 -1.039271999999999974e+00 7.043000000000000649e-02 6.123720000000000274e-01 -6.024709999999999788e-01 4.716080000000000272e-01 1.140449999999999936e-01 2.685009999999999897e-01 -2.001000000000000001e-02 -3.337559999999999971e-01 -9.762200000000000044e-02 3.623839999999999839e-01 3.794810000000000128e-01 2.308189999999999964e-01 6.597300000000000386e-02 1.236079999999999957e-01 1.731149999999999911e-01 1.667000000000000079e-03 -4.596250000000000058e-01 -6.912089999999999623e-01 -2.123430000000000040e-01 1.012129999999999974e-01 5.165299999999999753e-02 3.692300000000000026e-01 2.964149999999999840e-01 4.536709999999999909e-01 -4.536760000000000237e-01 -1.808699999999999891e-02 4.952829999999999733e-01 -2.965849999999999875e-01 3.819409999999999750e-01 3.174259999999999859e-01 -7.566799999999999915e-02 7.638200000000000545e-01 -2.411030000000000117e-01 -1.537509999999999988e-01 -4.992969999999999908e-01 1.285910000000000108e-01 -2.797000000000000042e-01 -7.293779999999999708e-01 2.667649999999999744e-01 7.096700000000000230e-02 -6.360069999999999890e-01 6.466399999999999926e-02 3.363349999999999951e-01 -1.680989999999999984e-01 -9.447229999999999794e-01 9.680800000000000516e-02 1.808389999999999997e-01 2.915600000000000136e-02 -9.065299999999999470e-01 -3.181470000000000131e-01 6.793970000000000287e-01 6.847899999999999820e-02 -1.692639999999999978e-01 4.343319999999999959e-01 4.999449999999999728e-01 2.670759999999999801e-01
3.321099999999999747e-02 -1.984400000000000053e-02 1.079959999999999948e-01 -1.180182000000000064e+00 9.352199999999999402e-02 6.888109999999999511e-01 -6.799410000000000176e-01 5.288230000000000430e-01 1.214579999999999965e-01 3.064850000000000074e-01 -2.986199999999999966e-02 -3.959730000000000194e-01 -1.132159999999999972e-01 4.124220000000000108e-01 3.828710000000000169e-01 2.582820000000000116e-01 7.687599999999999989e-02 9.337800000000000267e-02 2.071000000000000063e-01 6.498999999999999569e-03 -5.934369999999999923e-01 -7.960700000000000554e-01 -2.540589999999999793e-01 4.808799999999999880e-02 5.316799999999999998e-02 4.195240000000000080e-01 3.049350000000000116e-01 5.263970000000000038e-01 -5.170329999999999648e-01 -5.990600000000000092e-02 5.587330000000000352e-01 -3.314730000000000176e-01 3.974170000000000202e-01 3.503189999999999915e-01 -8.520199999999999996e-02 8.258780000000000010e-01 -2.773309999999999942e-01 -1.752279999999999949e-01 -5.267509999999999692e-01 1.484260000000000024e-01 -3.195950000000000180e-01 -7.845339999999999536e-01 2.983319999999999861e-01 8.283200000000000285e-02 -6.866520000000000401e-01 6.937599999999999323e-02 3.843840000000000034e-01 -1.576120000000000021e-01 -1.080265999999999948e+00 1.176210000000000033e-01 2.739519999999999733e-01 3.010300000000000128e-02 -1.043609999999999927e+00 -2.822049999999999836e-01 7.726589999999999847e-01 7.900200000000000278e-02 -1.305099999999999871e-01 5.160460000000000047e-01 5.743850000000000344e-01 3.745780000000000221e-01
4.218399999999999928e-02 -2.342299999999999938e-02 1.038329999999999947e-01 -1.317560000000000064e+00 1.195910000000000029e-01 7.646910000000000096e-01 -7.548559999999999715e-01 5.832789999999999919e-01 1.298020000000000007e-01 3.426739999999999786e-01 -4.021299999999999875e-02 -4.569289999999999741e-01 -1.287709999999999966e-01 4.609369999999999856e-01 3.839339999999999975e-01 2.839090000000000225e-01 8.754900000000000182e-02 6.204799999999999899e-02 2.420180000000000109e-01 1.229500000000000037e-02 -7.309750000000000414e-01 -9.018789999999999862e-01 -2.983520000000000061e-01 -1.075599999999999994e-02 5.435000000000000248e-02 4.678220000000000156e-01 3.115990000000000149e-01 5.991330000000000267e-01 -5.793460000000000276e-01 -1.033889999999999948e-01 6.196509999999999518e-01 -3.648259999999999836e-01 4.104320000000000190e-01 3.814290000000000180e-01 -9.496100000000000374e-02 8.826190000000000424e-01 -3.129089999999999927e-01 -1.967599999999999905e-01 -5.518319999999999892e-01 1.688099999999999878e-01 -3.590260000000000118e-01 -8.356459999999999999e-01 3.281149999999999900e-01 9.503999999999999948e-02 -7.345230000000000370e-01 7.374799999999999411e-02 4.316440000000000277e-01 -1.470619999999999983e-01 -1.213100999999999985e+00 1.398969999999999936e-01 3.672369999999999801e-01 3.048899999999999874e-02 -1.179931999999999981e+00 -2.414530000000000010e-01 8.629440000000000444e-01 8.979600000000000082e-02 -9.082999999999999408e-02 6.011619999999999742e-01 6.490770000000000151e-01 4.835579999999999878e-01
-1.317659999999999942e-01 -3.823300000000000309e-02 1.906819999999999904e-01 -5.954799999999999677e-02 -6.923600000000000587e-02 1.411199999999999954e-01 -6.426400000000000168e-02 -4.048700000000000215e-02 1.393689999999999929e-01 -1.274790000000000090e-01 -5.445699999999999846e-02 1.022129999999999983e-01 3.379000000000000059e-02 1.348179999999999934e-01 2.654469999999999885e-01 8.144999999999999463e-03 2.157200000000000090e-02 2.314450000000000118e-01 6.074399999999999938e-02 1.290600000000000080e-01 2.736390000000000211e-01 7.234000000000000152e-02 2.539399999999999991e-02 2.498329999999999995e-01 9.678299999999999403e-02 7.752399999999999569e-02 -7.311600000000000044e-02 9.235699999999999465e-02 1.121739999999999959e-01 -3.241299999999999737e-02 7.424999999999999656e-02 8.552800000000000680e-02 -4.419599999999999917e-02 6.235700000000000270e-02 4.467100000000000237e-02 -6.714399999999999535e-02 1.735700000000000090e-02 -3.667200000000000321e-02 -2.337509999999999866e-01 2.627499999999999974e-02 2.439999999999999949e-04 -2.181230000000000113e-01 1.854700000000000099e-02 -1.479999999999999979e-03 -2.013359999999999872e-01 1.757600000000000134e-02 1.534400000000000000e-02 -1.837550000000000017e-01 -4.679200000000000026e-02 -9.777199999999999780e-02 -1.494769999999999988e-01 -1.939499999999999905e-02 -7.496099999999999985e-02 -8.636699999999999933e-02 -6.694600000000000550e-02 -1.256160000000000054e-01 -1.868920000000000026e-01 -6.860900000000000332e-02 -1.082339999999999969e-01 -1.252310000000000090e-01
-1.655949999999999922e-01 -7.698199999999999488e-02 8.010799999999999865e-02 -1.029349999999999987e-01 -2.781300000000000092e-02 6.583300000000000263e-02 1.518700000000000085e-02 -5.491800000000000154e-02 8.763999999999999221e-03 -1.189739999999999964e-01 -6.637600000000000444e-02 2.650200000000000125e-02 5.562000000000000104e-03 1.701950000000000129e-01 2.107410000000000116e-01 1.234019999999999978e-01 -2.584600000000000092e-02 2.361910000000000120e-01 1.190250000000000058e-01 1.301579999999999959e-01 2.123619999999999952e-01 1.287400000000000003e-02 7.953999999999999265e-03 1.353810000000000013e-01 1.134460000000000052e-01 5.364800000000000124e-02 -3.835199999999999720e-02 1.510130000000000083e-01 1.058950000000000030e-01 -7.111599999999999866e-02 1.417299999999999983e-02 1.754070000000000074e-01 2.729600000000000082e-02 4.725900000000000239e-02 8.380000000000000296e-03 1.285700000000000037e-02 7.659000000000000009e-03 -5.157799999999999885e-02 -6.272800000000000598e-02 -1.433099999999999999e-02 1.292500000000000072e-02 -8.166299999999999948e-02 2.069299999999999959e-02 -3.671999999999999917e-03 -1.604109999999999980e-01 2.893099999999999838e-02 -1.164899999999999963e-02 -7.975699999999999457e-02 -9.903900000000000203e-02 -8.768399999999999805e-02 -8.436899999999999955e-02 -1.413870000000000127e-01 -1.356600000000000028e-01 -1.363240000000000007e-01 -1.365500000000000047e-02 -8.574600000000000277e-02 -2.742029999999999745e-01 -6.795999999999999958e-03 -3.683299999999999769e-02 -3.427800000000000291e-02
-1.974760000000000126e-01 -1.158819999999999989e-01 -3.679600000000000232e-02 -1.481820000000000082e-01 1.349299999999999979e-02 -1.156800000000000016e-02 8.889600000000000279e-02 -6.751000000000000056e-02 -1.189629999999999993e-01 -1.101160000000000055e-01 -7.885999999999999954e-02 -5.108200000000000240e-02 -2.366899999999999907e-02 2.035520000000000107e-01 1.567310000000000092e-01 2.343629999999999880e-01 -7.525500000000000245e-02 2.324610000000000010e-01 1.792370000000000074e-01 1.282059999999999866e-01 1.486190000000000011e-01 -5.281199999999999783e-02 -1.443400000000000065e-02 1.638900000000000079e-02 1.297049999999999870e-01 3.072799999999999837e-02 -3.811000000000000151e-03 2.112350000000000061e-01 9.800699999999999690e-02 -1.113490000000000035e-01 -4.089299999999999879e-02 2.615210000000000035e-01 9.417799999999999783e-02 3.203299999999999897e-02 -2.673000000000000029e-02 9.339799999999999491e-02 -1.281000000000000021e-03 -6.479100000000000137e-02 1.121759999999999979e-01 -5.334499999999999659e-02 2.507699999999999860e-02 5.739600000000000257e-02 2.296899999999999983e-02 -5.401000000000000419e-03 -1.182210000000000066e-01 4.014999999999999819e-02 -3.659400000000000153e-02 2.664300000000000002e-02 -1.534889999999999866e-01 -7.535300000000000331e-02 -1.720599999999999907e-02 -2.570379999999999887e-01 -1.914180000000000048e-01 -1.799880000000000091e-01 3.843900000000000095e-02 -4.751099999999999768e-02 -3.572359999999999980e-01 5.888999999999999790e-02 3.945400000000000296e-02 6.270199999999999385e-02
-2.274700000000000055e-01 -1.546579999999999899e-01 -1.587880000000000125e-01 -1.949569999999999914e-01 5.466300000000000325e-02 -8.961900000000000421e-02 1.567850000000000077e-01 -7.869199999999999806e-02 -2.421619999999999884e-01 -1.013710000000000028e-01 -9.185500000000000609e-02 -1.293199999999999905e-01 -5.316400000000000292e-02 2.347849999999999937e-01 1.040569999999999967e-01 3.404039999999999844e-01 -1.261400000000000021e-01 2.208050000000000013e-01 2.409920000000000118e-01 1.233520000000000033e-01 8.330100000000000005e-02 -1.246469999999999939e-01 -4.198799999999999755e-02 -1.059680000000000066e-01 1.454390000000000127e-01 8.850999999999999493e-03 3.005000000000000032e-02 2.727990000000000137e-01 8.858099999999999308e-02 -1.531490000000000073e-01 -9.110899999999999554e-02 3.438339999999999730e-01 1.560860000000000025e-01 1.693000000000000060e-02 -6.054799999999999766e-02 1.733439999999999981e-01 -9.435000000000000678e-03 -7.630800000000000083e-02 2.901190000000000158e-01 -9.060799999999999410e-02 3.674600000000000088e-02 1.982009999999999883e-01 2.539100000000000038e-02 -6.645999999999999998e-03 -7.530199999999999394e-02 5.126900000000000207e-02 -5.970199999999999813e-02 1.346620000000000039e-01 -2.099789999999999990e-01 -6.069499999999999895e-02 5.215499999999999997e-02 -3.667699999999999849e-01 -2.423669999999999991e-01 -2.174760000000000026e-01 8.918399999999999939e-02 -1.103699999999999994e-02 -4.353520000000000167e-01 1.283100000000000074e-01 1.203430000000000055e-01 1.658229999999999982e-01
-2.556390000000000051e-01 -1.936519999999999908e-01 -2.858780000000000210e-01 -2.432489999999999930e-01 9.552099999999999480e-02 -1.684920000000000029e-01 2.199720000000000009e-01 -8.876000000000000556e-02 -3.620610000000000217e-01 -9.231300000000000616e-02 -1.054859999999999964e-01 -2.082700000000000107e-01 -8.356299999999999839e-02 2.636689999999999867e-01 5.227099999999999802e-02 4.424279999999999879e-01 -1.779830000000000023e-01 2.023669999999999913e-01 3.047190000000000176e-01 1.154450000000000059e-01 1.595600000000000143e-02 -2.028149999999999953e-01 -7.470699999999999563e-02 -2.326550000000000007e-01 1.606309999999999960e-01 -1.199199999999999919e-02 6.294199999999999795e-02 3.354150000000000187e-01 7.773800000000000154e-02 -1.964829999999999910e-01 -1.368280000000000052e-01 4.223740000000000272e-01 2.130120000000000069e-01 1.925999999999999978e-03 -9.265400000000000025e-02 2.523299999999999987e-01 -1.678899999999999837e-02 -8.629699999999999871e-02 4.693959999999999799e-01 -1.262099999999999889e-01 4.800399999999999806e-02 3.394760000000000000e-01 2.798600000000000046e-02 -7.538999999999999695e-03 -3.251400000000000123e-02 6.238799999999999901e-02 -8.109199999999999742e-02 2.429379999999999873e-01 -2.679520000000000235e-01 -4.340800000000000214e-02 1.228029999999999955e-01 -4.698899999999999744e-01 -2.880889999999999840e-01 -2.497860000000000080e-01 1.381040000000000045e-01 2.356799999999999867e-02 -5.089970000000000327e-01 2.013119999999999910e-01 2.056640000000000135e-01 2.739170000000000216e-01
-2.816670000000000007e-01 -2.322750000000000092e-01 -4.161230000000000206e-01 -2.924840000000000217e-01 1.362379999999999980e-01 -2.465169999999999861e-01 2.778939999999999744e-01 -9.793899999999999828e-02 -4.762390000000000234e-01 -8.375100000000000600e-02 -1.193879999999999941e-01 -2.859389999999999987e-01 -1.143470000000000042e-01 2.899379999999999735e-01 1.726000000000000104e-03 5.401529999999999943e-01 -2.300500000000000045e-01 1.779660000000000131e-01 3.695399999999999796e-01 1.044849999999999945e-01 -5.260100000000000192e-02 -2.869369999999999976e-01 -1.126820000000000044e-01 -3.619459999999999900e-01 1.751260000000000039e-01 -3.180000000000000188e-02 9.453300000000000591e-02 3.987229999999999941e-01 6.554100000000000203e-02 -2.410829999999999917e-01 -1.782839999999999980e-01 4.968670000000000031e-01 2.650370000000000226e-01 -1.287400000000000003e-02 -1.231089999999999962e-01 3.298220000000000041e-01 -2.337600000000000094e-02 -9.457100000000000228e-02 6.491479999999999473e-01 -1.599099999999999966e-01 5.908499999999999863e-02 4.800510000000000055e-01 3.074899999999999856e-02 -8.057999999999999191e-03 9.749000000000000721e-03 7.335700000000000554e-02 -1.003349999999999936e-01 3.504639999999999977e-01 -3.273860000000000103e-01 -2.365700000000000094e-02 1.947180000000000022e-01 -5.668790000000000218e-01 -3.292280000000000206e-01 -2.771060000000000190e-01 1.852040000000000075e-01 5.639399999999999968e-02 -5.778229999999999755e-01 2.778059999999999974e-01 2.947549999999999892e-01 3.869810000000000194e-01
-3.057380000000000098e-01 -2.705449999999999799e-01 -5.481580000000000341e-01 -3.423329999999999984e-01 1.767869999999999997e-01 -3.228989999999999916e-01 3.305719999999999770e-01 -1.064459999999999990e-01 -5.843359999999999665e-01 -7.575400000000000189e-02 -1.336289999999999978e-01 -3.614310000000000023e-01 -1.452400000000000080e-01 3.134560000000000124e-01 -4.716800000000000159e-02 6.336079999999999490e-01 -2.815730000000000177e-01 1.485920000000000019e-01 4.349810000000000065e-01 9.063000000000000222e-02 -1.217069999999999957e-01 -3.767630000000000146e-01 -1.555600000000000038e-01 -4.934149999999999925e-01 1.889329999999999898e-01 -5.059400000000000008e-02 1.245679999999999982e-01 4.624429999999999930e-01 5.212800000000000072e-02 -2.868720000000000159e-01 -2.157729999999999926e-01 5.672449999999999992e-01 3.121630000000000238e-01 -2.737900000000000056e-02 -1.517920000000000103e-01 4.054409999999999958e-01 -2.922399999999999998e-02 -1.012910000000000060e-01 8.275390000000000246e-01 -1.917709999999999970e-01 6.987899999999999667e-02 6.185920000000000307e-01 3.366799999999999654e-02 -8.252999999999999919e-03 5.069300000000000195e-02 8.422599999999999532e-02 -1.176119999999999943e-01 4.559500000000000219e-01 -3.876939999999999831e-01 -1.394999999999999973e-03 2.671700000000000186e-01 -6.580369999999999830e-01 -3.660010000000000208e-01 -3.002049999999999996e-01 2.303090000000000137e-01 8.731400000000000272e-02 -6.422649999999999748e-01 3.576250000000000262e-01 3.869690000000000074e-01 5.037700000000000511e-01
-3.280680000000000263e-01 -3.082849999999999757e-01 -6.799629999999999841e-01 -3.925460000000000060e-01 2.167300000000000060e-01 -3.962749999999999884e-01 3.784830000000000139e-01 -1.144150000000000028e-01 -6.856389999999999985e-01 -6.814499999999999724e-02 -1.483659999999999979e-01 -4.335629999999999762e-01 -1.757779999999999898e-01 3.342820000000000236e-01 -9.410399999999999321e-02 7.224209999999999798e-01 -3.319770000000000221e-01 1.153099999999999958e-01 5.007340000000000124e-01 7.441200000000000592e-02 -1.904909999999999937e-01 -4.713780000000000192e-01 -2.026999999999999913e-01 -6.256880000000000219e-01 2.019940000000000069e-01 -6.846199999999999508e-02 1.527159999999999906e-01 5.262409999999999588e-01 3.773300000000000265e-02 -3.337249999999999939e-01 -2.495580000000000020e-01 6.333130000000000148e-01 3.543310000000000071e-01 -4.144300000000000067e-02 -1.785710000000000075e-01 4.785420000000000229e-01 -3.441000000000000308e-02 -1.064309999999999978e-01 1.002671000000000090e+00 -2.218080000000000052e-01 8.043999999999999762e-02 7.537430000000000518e-01 3.677199999999999913e-02 -8.148999999999999994e-03 8.967100000000000071e-02 9.495299999999999574e-02 -1.330820000000000058e-01 5.582049999999999512e-01 -4.483599999999999808e-01 2.325299999999999936e-02 3.396879999999999900e-01 -7.429729999999999945e-01 -3.984360000000000124e-01 -3.196680000000000077e-01 2.732140000000000124e-01 1.164349999999999968e-01 -7.024029999999999996e-01 4.404910000000000214e-01 4.816110000000000113e-01 6.234739999999999727e-01
-3.485790000000000277e-01 -3.450710000000000166e-01 -8.100629999999999775e-01 -4.429429999999999756e-01 2.561300000000000243e-01 -4.661600000000000188e-01 4.220010000000000150e-01 -1.217759999999999954e-01 -7.796089999999999964e-01 -6.111599999999999672e-02 -1.632800000000000085e-01 -5.015020000000000033e-01 -2.059769999999999934e-01 3.521210000000000173e-01 -1.394219999999999904e-01 8.071479999999999766e-01 -3.810720000000000218e-01 7.850100000000000133e-02 5.664839999999999876e-01 5.568599999999999939e-02 -2.588039999999999785e-01 -5.705750000000000544e-01 -2.537490000000000023e-01 -7.587209999999999788e-01 2.142880000000000063e-01 -8.550900000000000167e-02 1.786339999999999872e-01 5.897000000000000020e-01 2.247199999999999892e-02 -3.814730000000000065e-01 -2.799369999999999914e-01 6.953740000000000476e-01 3.916259999999999741e-01 -5.494899999999999785e-02 -2.035609999999999919e-01 5.484470000000000178e-01 -3.898999999999999688e-02 -1.102739999999999970e-01 1.173110000000000097e+00 -2.500780000000000225e-01 9.095499999999999419e-02 8.841459999999999875e-01 3.999400000000000177e-02 -7.900000000000000772e-03 1.259659999999999946e-01 1.055360000000000048e-01 -1.469749999999999945e-01 6.562270000000000048e-01 -5.090000000000000080e-01 5.002299999999999802e-02 4.122069999999999901e-01 -8.222340000000000204e-01 -4.270399999999999752e-01 -3.355509999999999882e-01 3.141700000000000048e-01 1.440450000000000064e-01 -7.579829999999999623e-01 5.258140000000000036e-01 5.780579999999999607e-01 7.455540000000000500e-01