1.203886999999999929e+00 2.680890000000000217e-01 -4.426399999999999779e-02 9.985800000000000232e-01 2.073379999999999945e-01 -1.256018000000000079e+00 7.425119999999999498e-01 4.231659999999999866e-01 1.697750000000000092e-01 -1.170323999999999920e+00 -5.885829999999999673e-01 5.216950000000000198e-01 -3.173830000000000262e-01 -5.330840000000000023e-01 2.808329999999999993e-01 -2.158799999999999886e-01 -1.376110000000000111e-01 5.410479999999999734e-01 3.772940000000000182e-01 -2.370629999999999959e-01 -1.599550000000000138e-01 8.318719999999999448e-01 9.478480000000000238e-01 -5.201789999999999470e-01 -7.186780000000000390e-01 5.535520000000000440e-01 -1.428274999999999961e+00 5.073950000000000404e-01 -4.719749999999999779e-01 5.390460000000000251e-01 -1.212180999999999953e+00 8.043200000000000349e-02 -6.988010000000000055e-01 6.502700000000000147e-02 1.136770000000000003e-01 8.431359999999999966e-01 -2.697260000000000213e-01 -1.032491000000000048e+00 5.611620000000000497e-01 -7.893899999999999528e-02 1.204447999999999963e+00 -8.965720000000000356e-01 -3.980899999999999717e-02 -1.675619999999999887e-01 3.922610000000000263e-01 -3.683660000000000267e-01 -6.565010000000000012e-01 1.354700999999999933e+00 7.279940000000000300e-01 7.414190000000000502e-01 -2.165320000000000022e-01 -3.282479999999999842e-01 3.560820000000000096e-01 -2.550999999999999934e-01 -5.136230000000000517e-01 -6.583440000000000403e-01 1.501869999999999872e-01 -2.214049999999999907e-01 -4.128390000000000115e-01 1.218530000000000030e-01
1.631197000000000008e+00 4.800679999999999947e-01 4.947449999999999903e-01 5.282510000000000261e-01 -7.511900000000000521e-02 -2.285099999999999978e-02 -2.036350000000000104e-01 -5.002839999999999510e-01 2.817310000000000092e-01 3.684390000000000165e-01 2.354140000000000121e-01 -3.479800000000000254e-02 2.213279999999999970e-01 6.112250000000000183e-01 -3.055059999999999998e-01 -1.205359999999999987e+00 -5.052600000000000147e-02 2.784920000000000173e-01 -9.966490000000000071e-01 6.594099999999999961e-02 3.141249999999999876e-01 6.272539999999999782e-01 2.066030000000000089e-01 1.606559999999999933e-01 -1.385364000000000040e+00 -2.124840000000000062e-01 -2.650040000000000173e-01 -1.025900000000000076e-02 3.945670000000000011e-01 -2.830999999999999836e-02 -7.656899999999999817e-02 -9.856000000000000177e-03 6.597889999999999588e-01 -2.909300000000000219e-01 5.756879999999999775e-01 1.142999999999999988e-01 -1.523614999999999942e+00 -4.960689999999999822e-01 1.731399999999999953e-02 2.608440000000000203e-01 -5.900720000000000409e-01 -4.357889999999999819e-01 1.299903000000000031e+00 -6.034890000000000532e-01 -4.117379999999999929e-01 -3.163230000000000208e-01 -2.720670000000000033e-01 -9.244299999999999740e-02 1.138919000000000015e+00 -6.295680000000000165e-01 -8.149429999999999730e-01 -9.412530000000000063e-01 -1.793899999999999939e-01 -2.541799999999999962e-02 9.894279999999999742e-01 5.089979999999999505e-01 -1.644819999999999893e-01 -1.156060000000000004e-01 5.404219999999999580e-01 2.801290000000000169e-01
1.324124000000000079e+00 -3.377430000000000154e-01 -3.593230000000000035e-01 -1.123419999999999974e-01 3.540639999999999898e-01 -3.786829999999999918e-01 -4.206810000000000271e-01 -1.103340000000000015e-01 -4.054150000000000253e-01 1.459989999999999899e-01 3.081729999999999747e-01 -9.025929999999999787e-01 5.261409999999999698e-01 3.496070000000000011e-01 -1.062391000000000085e+00 -1.262780000000000014e-01 5.029679999999999707e-01 4.692640000000000144e-01 -2.024170000000000136e-01 4.221960000000000157e-01 1.035182999999999964e+00 -4.293049999999999922e-01 -2.124664000000000108e+00 -1.445140000000000036e-01 -5.635369999999999546e-01 -1.194500000000000076e-02 1.499959000000000042e+00 -7.450189999999999868e-01 -4.016100000000000225e-02 -8.478470000000000173e-01 2.556780000000000164e-01 -2.660480000000000067e-01 -7.728909999999999947e-01 -1.159343000000000012e+00 1.353939999999999866e-01 9.288389999999999702e-01 1.406399999999999872e-01 -4.213069999999999871e-01 1.633469000000000060e+00 4.252449999999999841e-01 -6.223720000000000363e-01 -4.537000000000000234e-03 -8.757920000000000149e-01 -7.816260000000000430e-01 4.845039999999999902e-01 3.939159999999999884e-01 5.860520000000000174e-01 8.394599999999999840e-01 4.573380000000000223e-01 2.124949999999999894e-01 -3.462430000000000230e-01 1.977019999999999889e-01 -1.012929999999999942e-01 -9.574920000000000098e-01 4.175579999999999847e-01 2.552189999999999737e-01 -6.779060000000000086e-01 3.503749999999999920e-01 1.691322999999999910e+00 -3.084399999999999989e-02
-1.251290999999999931e+00 4.941030000000000144e-01 -4.202600000000000086e-02 -4.335200000000000164e-02 -1.101243999999999890e+00 7.719110000000000138e-01 9.037990000000000190e-01 3.141599999999999948e-01 -8.109189999999999454e-01 -2.570689999999999920e-01 -2.638469999999999982e-01 -3.124700000000000047e-02 9.679480000000000306e-01 -2.891409999999999814e-01 9.037889999999999535e-01 -8.751339999999999675e-01 -6.847199999999999953e-01 3.292669999999999764e-01 2.921639999999999793e-01 -7.386700000000000210e-02 3.107409999999999894e-01 -4.427249999999999797e-01 1.051740000000000036e-01 1.182939999999999964e-01 -1.664440000000000086e-01 -4.359319999999999862e-01 5.711600000000000010e-01 -6.489129999999999621e-01 -1.539679999999999938e-01 8.476120000000000321e-01 -1.463180000000000036e-01 4.294649999999999856e-01 -1.156390000000000057e-01 7.734760000000000524e-01 5.284619999999999873e-01 1.819890000000000119e-01 -8.447679999999999634e-01 1.847530000000000006e-01 1.081590000000000051e-01 3.180250000000000021e-01 9.209209999999999896e-01 -2.044236999999999860e+00 6.334969999999999768e-01 4.312019999999999742e-01 8.391570000000000418e-01 4.336389999999999967e-01 3.611000000000000321e-02 -3.915830000000000144e-01 -8.940700000000000036e-02 2.292700000000000016e-01 -6.137529999999999930e-01 3.920819999999999861e-01 -3.926959999999999895e-01 -8.762400000000000189e-01 2.830659999999999843e-01 -1.658219999999999972e-01 -3.211849999999999983e-01 -2.322760000000000102e-01 -1.123829999999999968e-01 2.647479999999999833e-01
-3.422890000000000099e-01 -5.117949999999999999e-01 5.960379999999999567e-01 -9.850799999999999834e-02 -6.862129999999999619e-01 3.110700000000000132e-01 -1.756179999999999963e-01 2.015949999999999964e-01 9.377020000000000355e-01 -2.438410000000000022e-01 1.050330000000000014e-01 3.552980000000000027e-01 -4.056830000000000158e-01 -6.749199999999999644e-02 5.799999999999999600e-01 9.910409999999999497e-01 6.145599999999999952e-01 1.273829999999999962e-01 -5.435940000000000216e-01 -6.033299999999999774e-02 -3.285569999999999879e-01 -2.447270000000000001e-01 3.549249999999999905e-01 9.297940000000000094e-01 3.988680000000000003e-01 -5.782999999999999946e-02 -6.294380000000000530e-01 3.347539999999999960e-01 4.095030000000000059e-01 -4.186420000000000141e-01 2.267399999999999971e-01 -1.792819999999999969e-01 -1.869230000000000058e-01 -3.818400000000000266e-02 5.925850000000000284e-01 -3.528149999999999897e-01 -2.037210000000000132e-01 5.205940000000000012e-01 -1.267787999999999915e+00 9.585919999999999996e-01 -4.735170000000000212e-01 5.457549999999999901e-01 -3.478999999999999870e-01 3.221000000000000252e-02 -1.894579999999999875e-01 -1.642210000000000059e-01 -2.188680000000000070e-01 1.096229999999999982e-01 -7.060199999999999809e-01 -6.192389999999999839e-01 -3.236310000000000020e-01 -1.727410000000000057e-01 5.346299999999999664e-02 2.149280000000000079e-01 1.925300000000000067e-01 -6.863470000000000404e-01 4.553960000000000230e-01 5.845209999999999573e-01 6.764459999999999917e-01 -1.465735999999999928e+00
2.621154999999999902e+00 5.369540000000000424e-01 -3.914489999999999914e-01 -1.173140999999999989e+00 -2.564210000000000100e-01 -2.634460000000000135e-01 9.405369999999999564e-01 1.284420000000000006e-01 7.471500000000000363e-02 3.242670000000000274e-01 -2.164719999999999978e-01 -2.470499999999999918e-01 2.659400000000000097e-01 6.453410000000000535e-01 2.987700000000000078e-02 -3.843980000000000175e-01 1.036409999999999970e-01 4.635500000000000037e-02 -1.044245000000000090e+00 1.358829999999999982e+00 -4.879569999999999741e-01 1.595698999999999979e+00 -1.750305999999999917e+00 -1.426962000000000064e+00 5.656679999999999486e-01 3.193639999999999812e-01 6.403000000000000358e-02 8.814659999999999718e-01 6.502879999999999772e-01 1.286499999999999977e+00 4.935080000000000022e-01 -1.720240000000000102e-01 5.759000000000000230e-02 -2.637500999999999873e+00 -1.226248000000000005e+00 6.644769999999999843e-01 3.853349999999999831e-01 -2.889610000000000234e-01 4.099610000000000198e-01 -7.706799999999999762e-02 -4.197700000000000042e-02 1.032475999999999949e+00 -1.072737000000000052e+00 -5.530700000000000199e-02 -3.919779999999999931e-01 -1.320294000000000079e+00 1.176768999999999954e+00 1.641747000000000067e+00 -2.739010000000000056e-01 -7.350119999999999987e-01 -8.307029999999999692e-01 1.693429999999999935e-01 -1.006016000000000021e+00 -6.332849999999999868e-01 -4.119140000000000024e-01 -3.355569999999999942e-01 -1.608400000000000107e-02 1.522789999999999977e-01 1.164668999999999954e+00 -6.188139999999999752e-01
3.321099999999999747e-02 -1.668010999999999910e+00 6.481599999999999862e-02 -3.263190000000000257e-01 -6.279559999999999587e-01 -4.905030000000000223e-01 7.357150000000000079e-01 -4.088950000000000085e-01 -3.555699999999999833e-02 -5.804200000000000470e-01 1.320545000000000080e+00 7.845779999999999976e-01 -8.009199999999999653e-01 -7.335749999999999771e-01 3.157240000000000046e-01 6.054899999999999727e-01 3.094500000000000028e-01 1.738400000000000015e-02 5.107600000000000334e-02 9.851879999999999526e-01 -1.396848000000000090e+00 -8.899019999999999708e-01 -1.193405999999999967e+00 -3.664319999999999800e-01 -3.167220000000000035e-01 4.453100000000000114e-02 -1.324950000000000017e-01 1.588890000000000025e-01 -7.783299999999999663e-01 1.828170000000000073e-01 -2.216299999999999867e-02 7.323720000000000230e-01 4.393469999999999875e-01 -6.099620000000000042e-01 1.862520000000000009e-01 -9.651410000000000267e-01 6.868919999999999471e-01 6.296530000000000182e-01 -1.259339999999999904e-01 -3.676639999999999908e-01 3.310719999999999774e-01 -3.049199999999999827e-02 2.082980000000000109e-01 1.652059999999999917e-01 2.583329999999999793e-01 2.786290000000000155e-01 6.087900000000000533e-01 -5.040519999999999445e-01 1.422411000000000092e+00 7.919549999999999645e-01 1.173794000000000004e+00 -2.284259999999999902e-01 -1.713780000000000026e-01 -7.138600000000000501e-02 -1.488180000000000058e-01 -5.255750000000000144e-01 1.104463999999999890e+00 1.107069999999999999e-01 2.112999999999999861e-03 -2.224160000000000026e-01
-8.125409999999999577e-01 5.422040000000000193e-01 7.231119999999999770e-01 -4.407200000000000006e-02 -1.647329999999999905e-01 -8.129939999999999944e-01 -2.715830000000000188e-01 4.316539999999999822e-01 -3.220180000000000264e-01 3.121800000000000130e-01 3.891830000000000012e-01 -2.840849999999999764e-01 1.718459999999999988e-01 6.054000000000000353e-03 -1.096111000000000057e+00 3.692000000000000143e-02 -9.683700000000000641e-02 1.141360000000000013e-01 -6.227900000000000102e-02 -2.434099999999999875e-01 1.697929999999999995e-01 1.872189999999999965e-01 -8.085970000000000102e-01 2.660560000000000147e-01 -2.487219999999999986e-01 -9.769160000000000066e-01 6.153969999999999718e-01 -3.904009999999999980e-01 -1.167500000000000066e-01 9.164909999999999446e-01 1.111455000000000082e+00 -8.759959999999999969e-01 2.634340000000000015e-01 -1.037060000000000065e-01 9.195820000000000105e-01 4.909819999999999740e-01 -7.419900000000000106e-02 -3.418950000000000045e-01 -4.973429999999999795e-01 3.095289999999999986e-01 -2.859160000000000035e-01 -1.442410000000000081e-01 -2.271330000000000016e-01 -2.426550000000000096e-01 -6.855949999999999545e-01 3.643060000000000187e-01 1.008359000000000005e+00 -5.498700000000000115e-02 3.866699999999999998e-02 -3.330799999999999733e-02 2.043429999999999969e-01 4.706400000000000167e-02 8.321060000000000123e-01 -5.044030000000000458e-01 -6.495959999999999512e-01 -2.258550000000000002e-01 -2.193599999999999994e-01 3.050459999999999838e-01 2.837259999999999782e-01 8.573910000000000142e-01
1.384650000000000047e-01 -8.139680000000000248e-01 1.701759999999999939e-01 1.185269999999999935e-01 -1.021004000000000023e+00 1.389143999999999934e+00 -1.597959999999999936e-01 4.839000000000000419e-03 1.319911999999999974e+00 -2.829510000000000081e-01 9.154769999999999852e-01 8.935699999999999754e-01 -3.274699999999999833e-01 -3.664910000000000112e-01 3.870149999999999979e-01 3.330640000000000267e-01 -3.080590000000000273e-01 -9.803800000000000014e-02 1.928989999999999871e-01 3.473820000000000241e-01 -4.673200000000000270e-02 4.211590000000000056e-01 5.188139999999999974e-01 -4.548100000000000059e-02 3.800300000000000206e-02 -1.423780000000000046e-01 -5.157760000000000122e-01 -7.775379999999999514e-01 -2.729119999999999879e-01 -7.183110000000000328e-01 -2.541450000000000098e-01 1.856135000000000090e+00 -2.176039999999999919e-01 6.335410000000000208e-01 -1.218720999999999943e+00 -5.879419999999999646e-01 -5.677659999999999929e-01 7.147710000000000452e-01 -1.443560000000000121e-01 5.796599999999999531e-01 3.442230000000000012e-01 4.245700000000000168e-02 1.067050999999999972e+00 -1.034070000000000045e+00 -4.313719999999999777e-01 -7.417340000000000044e-01 1.261990000000000056e-01 -2.663099999999999912e-01 7.261060000000000292e-01 2.073099999999999943e-01 -8.683039999999999647e-01 -4.157689999999999997e-01 8.328579999999999872e-01 -2.504500000000000060e-01 -9.113569999999999727e-01 -2.433879999999999932e-01 -3.779099999999999820e-02 1.900499999999999967e-01 -4.470169999999999977e-01 2.619499999999999953e-02
-9.158700000000000174e-02 -5.972600000000000131e-01 2.977679999999999771e-01 6.308110000000000106e-01 7.474739999999999718e-01 1.752669000000000032e+00 -6.168620000000000214e-01 3.320020000000000193e-01 -2.059090000000000087e-01 -4.071609999999999951e-01 2.582439999999999736e-01 2.005850000000000133e-01 1.053322000000000092e+00 2.235939999999999872e-01 2.643400000000000194e-01 -1.692142000000000035e+00 -2.257899999999999907e-01 -2.721489999999999743e-01 1.914369999999999961e-01 -2.861940000000000039e-01 1.522300000000000042e-02 -5.526180000000000536e-01 1.927826000000000040e+00 9.920719999999999539e-01 1.000817000000000068e+00 -2.066800000000000026e-01 -4.895869999999999944e-01 -1.837004000000000081e+00 -1.464083999999999941e+00 -6.324030000000000484e-01 1.483710000000000029e-01 5.678339999999999499e-01 1.052448999999999968e+00 4.372399999999999898e-02 -8.273400000000000198e-02 4.305209999999999870e-01 3.832960000000000256e-01 -2.745580000000000243e-01 -5.562040000000000317e-01 7.642259999999999609e-01 -2.951699999999999879e-01 -3.334699999999999886e-01 4.380930000000000102e-01 -1.958695000000000075e+00 -1.147947000000000051e+00 1.544245000000000090e+00 9.143710000000000448e-01 -2.659960000000000102e-01 -4.863029999999999853e-01 -4.818560000000000065e-01 -6.370780000000000332e-01 -5.867300000000000293e-02 1.793379999999999974e-01 -8.642199999999999882e-02 -1.793410000000000004e-01 -7.199999999999999456e-02 -2.056939999999999880e-01 -2.766509999999999803e-01 7.943369999999999598e-01 -1.727700000000000069e-01
-1.029976999999999920e+00 2.531030000000000224e-01 -2.375999999999999890e+00 5.219549999999999468e-01 1.640499999999999944e-02 -6.412609999999999699e-01 3.553049999999999820e-01 5.137840000000000185e-01 -6.805700000000000083e-01 -4.650480000000000169e-01 3.855319999999999858e-01 1.877600000000000102e-01 4.909370000000000123e-01 -2.473019999999999941e-01 3.330469999999999819e-01 8.002970000000000361e-01 -6.632000000000000395e-02 6.963859999999999495e-01 -3.236229999999999940e-01 -2.226678000000000157e+00 1.117760000000000004e-01 1.880575000000000108e+00 -1.676865999999999968e+00 -1.122640000000000027e-01 4.950700000000000239e-02 -1.330977000000000077e+00 -2.885150000000000214e-01 1.213339999999999974e-01 1.804629999999999956e+00 6.269860000000000433e-01 -1.521339999999999915e-01 -1.021973000000000020e+00 1.086386999999999992e+00 8.233300000000000063e-01 3.284159999999999857e-01 -3.368899999999999673e-02 -4.134260000000000157e-01 4.623169999999999780e-01 1.298246999999999929e+00 6.485020000000000229e-01 1.262985999999999942e+00 4.177250000000000130e-01 -1.675300000000000053e-02 -2.811100000000000265e-01 -4.987539999999999751e-01 -9.985939999999999817e-01 1.256340999999999930e+00 1.089366999999999974e+00 -9.898150000000000004e-01 5.607569999999999499e-01 -1.366809999999999969e-01 -1.305163000000000073e+00 6.340919999999999890e-01 -8.930869999999999642e-01 -1.437632000000000021e+00 -1.561690000000000023e-01 -1.262923999999999936e+00 1.440425999999999984e+00 -4.709670000000000245e-01 1.076065999999999967e+00
1.206440000000000012e-01 9.332540000000000280e-01 3.913579999999999837e-01 -1.433969999999999967e-01 7.504600000000000160e-02 -3.447620000000000129e-01 1.674329999999999985e-01 -5.568079999999999696e-01 1.098620000000000013e-01 -3.078929999999999723e-01 8.840740000000000265e-01 -7.231889999999999707e-01 -1.322629000000000055e+00 2.007919999999999983e-01 1.579849999999999866e-01 -7.187409999999999632e-01 8.570609999999999618e-01 1.467835000000000001e+00 2.958609999999999851e-01 -4.236119999999999886e-01 5.836980000000000501e-01 -3.777179999999999982e-01 3.022969999999999824e-01 -1.623400000000000121e-01 -2.476029999999999898e-01 -8.414829999999999810e-01 4.774099999999999872e-02 2.672320000000000251e-01 7.149119999999999919e-01 -2.066439999999999944e-01 2.969649999999999790e-01 -2.596029999999999727e-01 1.320759999999999990e-01 4.166399999999999965e-02 -6.334920000000000551e-01 -6.366099999999999537e-02 6.555189999999999628e-01 -6.974879999999999969e-01 -6.086789999999999701e-01 1.129389999999999977e-01 2.873080000000000078e-01 -1.812070000000000070e-01 -8.592779999999999863e-01 -7.320899999999999630e-02 5.922380000000000422e-01 5.213130000000000264e-01 3.695880000000000276e-01 -4.172899999999999943e-01 9.781029999999999447e-01 -6.089759999999999618e-01 -4.422059999999999880e-01 3.550599999999999867e-01 4.286280000000000090e-01 -2.151959999999999984e-01 2.427729999999999888e-01 -2.028929999999999900e-01 -1.109529999999999905e+00 -7.824799999999999811e-02 -7.553959999999999564e-01 9.919130000000000447e-01
-8.181499999999999884e-02 -1.370444999999999913e+00 1.992819999999999869e-01 1.152400000000000091e+00 6.060029999999999584e-01 6.103700000000000098e-02 -4.973239999999999883e-01 1.282870000000000121e-01 -1.224968999999999975e+00 2.087489999999999901e-01 -9.167950000000000266e-01 2.758570000000000189e-01 8.369159999999999933e-01 1.743629999999999902e-01 -1.153909999999999936e-01 -2.411240000000000050e-01 -1.637450000000000017e-01 2.787990000000000190e-01 3.627859999999999974e-01 3.178920000000000079e-01 8.663500000000000367e-02 -9.804000000000000214e-02 -1.121053999999999995e+00 -1.468009999999999871e-01 5.430920000000000192e-01 -2.152850000000000041e-01 3.904799999999999938e-01 -1.922484999999999999e+00 -6.249400000000000510e-01 -2.645429999999999726e-01 5.204830000000000290e-01 -2.239599999999999924e-01 2.741109999999999935e-01 3.267490000000000117e-01 2.291265999999999803e+00 -1.376130000000000075e+00 2.261890000000000012e-01 7.035080000000000222e-01 1.031352999999999964e+00 1.113269999999999954e-01 -6.302099999999999369e-02 1.112573999999999952e+00 -9.087699999999999945e-02 -8.450389999999999846e-01 1.605159999999999920e-01 -5.998830000000000551e-01 9.986869999999999914e-01 9.441019999999999968e-01 -5.901459999999999484e-01 5.890000000000000270e-03 -4.464310000000000223e-01 -3.055620000000000003e-01 1.301399999999999953e-02 2.760000000000000231e-01 -3.073500000000000121e-01 8.457699999999999940e-02 -7.610510000000000330e-01 4.459139999999999771e-01 2.207969999999999933e-01 -7.554300000000000459e-01
-1.042524999999999924e+00 3.037810000000000232e-01 1.248232000000000008e+00 -7.437610000000000054e-01 5.266100000000000225e-01 1.601539999999999908e-01 -2.790170000000000150e-01 4.965570000000000261e-01 4.187779999999999836e-01 3.320509999999999851e-01 1.064149999999999929e+00 -3.511949999999999794e-01 -6.204849999999999532e-01 -2.132747999999999866e+00 4.392909999999999870e-01 1.081490000000000062e+00 8.263810000000000322e-01 1.964899999999999980e-01 7.509700000000000264e-01 4.102740000000000276e-01 1.337293000000000065e+00 -4.833350000000000146e-01 3.015349999999999975e-01 1.103064000000000044e+00 6.218080000000000274e-01 4.960330000000000017e-01 -2.004479999999999873e-01 2.558289999999999731e-01 -1.009778999999999982e+00 1.103940000000000060e-01 6.158839999999999870e-01 -9.779000000000000192e-02 -9.207159999999999789e-01 4.223330000000000140e-01 -8.292810000000000459e-01 3.886689999999999867e-01 -1.464119999999999866e-01 -4.990029999999999744e-01 -6.846179999999999488e-01 -2.379172000000000065e+00 -7.649669999999999526e-01 -1.245999999999999996e+00 -1.267810000000000048e-01 -5.933129999999999793e-01 -3.732139999999999902e-01 1.932776999999999967e+00 4.048760000000000137e-01 -1.140377999999999892e+00 6.521909999999999652e-01 -3.197530000000000094e-01 -1.449529999999999985e-01 5.562999999999999889e-02 -4.425649999999999862e-01 -2.648229999999999751e-01 2.936700000000000074e-02 2.473749999999999893e+00 -1.790720000000000089e-01 -9.288450000000000317e-01 -6.147500000000000187e-01 1.030510000000000037e-01
4.806400000000000117e-01 7.393110000000000515e-01 4.023300000000000209e-01 -9.299300000000000621e-02 3.145729999999999915e-01 -1.287101000000000051e+00 2.444010000000000071e-01 -7.472760000000000513e-01 -4.033849999999999936e-01 -2.565060000000000118e-01 -9.156630000000000047e-01 -3.403945999999999916e+00 4.754140000000000033e-01 -1.485229999999999884e-01 3.064874999999999794e+00 -9.840729999999999755e-01 -3.941910000000000136e-01 -1.377626000000000017e+00 -2.141689999999999983e-01 -2.069809999999999983e-01 -1.745259999999999867e-01 9.699809999999999821e-01 2.558270000000000266e-01 4.788819999999999744e-01 -3.192650000000000210e-01 -2.159189999999999998e-01 4.990020000000000011e-01 1.623630000000000073e-01 4.464139999999999775e-01 1.190884000000000054e+00 -4.980789999999999940e-01 -4.642299999999999899e-02 -8.885400000000000242e-02 -5.637199999999999850e-02 -1.150455000000000005e+00 1.759429999999999883e-01 -8.886499999999999955e-02 2.548630000000000062e-01 -2.933859999999999801e-01 6.774010000000000309e-01 9.612540000000000529e-01 2.794541000000000164e+00 -1.968100000000000058e-02 6.404800000000000493e-01 5.999799999999999578e-01 -3.639299999999999757e-01 -7.909049999999999692e-01 -1.109559999999999991e-01 -1.515277999999999903e+00 5.479579999999999451e-01 -3.004418999999999951e+00 6.779460000000000486e-01 7.091539999999999511e-01 8.669609999999999816e-01 1.070000000000000062e+00 -3.014910000000000090e-01 9.575300000000000478e-02 -3.489360000000000239e-01 4.799400000000000194e-02 -2.495199999999999849e-02
-2.803419999999999801e-01 -5.620300000000000296e-02 5.484599999999999476e-01 1.393062999999999940e+00 2.577220000000000066e-01 9.250699999999999479e-01 -2.092259999999999953e-01 -1.642349999999999921e-01 5.015749999999999931e-01 2.357670000000000043e-01 -3.048540000000000139e-01 1.090299999999999950e-02 -3.819819999999999882e-01 -4.479000000000000342e-03 1.913819999999999966e-01 -8.338410000000000544e-01 2.357120000000000049e-01 1.047779999999999934e+00 -2.952480000000000104e-01 -2.228519999999999945e-01 1.115180999999999978e+00 -1.679319999999999979e-01 -4.016149999999999998e-01 5.237800000000000095e-02 6.287110000000000198e-01 -4.460950000000000193e-01 -2.385859999999999925e-01 -1.428447000000000022e+00 -8.944399999999999573e-02 -1.062532000000000032e+00 1.059889999999999999e-01 2.328999999999999907e-03 -6.318019999999999747e-01 -5.271799999999999820e-01 6.529150000000000231e-01 -2.024070000000000036e-01 1.318901000000000101e+00 -5.102219999999999533e-01 -1.018899999999999917e+00 5.211980000000000501e-01 2.296360000000000068e-01 -6.193309999999999649e-01 -3.086450000000000027e-01 1.231324000000000085e+00 -9.650450000000000417e-01 5.430040000000000422e-01 2.673070000000000168e-01 -5.160280000000000422e-01 -2.637610000000000232e-01 -3.658420000000000005e-01 4.550540000000000140e-01 -5.700659999999999616e-01 3.574535000000000018e+00 2.544669999999999987e-01 6.018149999999999888e-01 -3.905524999999999913e+00 1.149349999999999955e-01 -8.177900000000000447e-02 1.988699999999999843e-02 3.744700000000000112e-02
-8.583479999999999999e-01 1.895820000000000005e-01 1.288493000000000110e+00 -1.011765999999999943e+00 3.446219999999999839e-01 1.755839999999999901e-01 -4.283800000000000108e-02 -1.389779999999999904e-01 2.455360000000000043e-01 6.277909999999999879e-01 1.054879999999999984e-01 8.834980000000000055e-01 -7.335300000000000153e-02 8.614199999999999635e-02 2.188589999999999980e-01 -3.272220000000000129e-01 3.175649999999999862e-01 -8.460990000000000455e-01 -3.461339999999999972e-01 -6.149059999999999526e-01 2.020009999999999861e-01 -7.942150000000000043e-01 -4.744900000000000229e-01 3.756099999999999717e-02 8.841999999999999166e-03 1.115796999999999928e+00 -4.458600000000000063e-02 4.113760000000000194e-01 -8.367120000000000113e-01 2.748990000000000045e-01 6.222229999999999706e-01 2.090869999999999951e-01 -4.738490000000000202e-01 3.437399999999999900e-01 -8.708650000000000002e-01 -5.649980000000000002e-01 1.467778000000000027e+00 -3.527350000000000207e-01 2.219959999999999989e-01 4.320579999999999976e-01 8.745300000000000296e-02 -7.945649999999999658e-01 -7.426989999999999981e-01 2.616500000000000076e-02 -6.782080000000000330e-01 -2.930440000000000267e-01 2.987949999999999773e-01 7.740199999999999858e-02 3.095419999999999838e-01 1.240730000000000027e-01 3.459659999999999958e-01 2.206049999999999955e-01 1.031214000000000075e+00 -4.961119999999999974e-01 -1.881960000000000022e-01 4.149599999999999955e-01 1.172498000000000040e+00 2.338590000000000113e-01 -1.062257000000000007e+00 -1.245875999999999983e+00
5.605240000000000222e-01 3.709089999999999887e-01 -7.221490000000000409e-01 8.935020000000000184e-01 -4.139669999999999739e-01 -4.528389999999999915e-01 -1.247937999999999992e+00 1.147849999999999981e-01 -6.435699999999999754e-02 -1.360678000000000054e+00 -2.322289999999999910e-01 -4.256570000000000076e-01 -3.606800000000000284e-02 -3.702150000000000163e-01 -1.422090000000000021e-01 6.819070000000000409e-01 3.114620000000000166e-01 6.695079999999999920e-01 9.227910000000000279e-01 -8.904410000000000380e-01 9.152379999999999960e-01 -9.490800000000000625e-02 7.200959999999999583e-01 1.243260000000000060e-01 3.563939999999999886e-01 -2.148059999999999969e-01 2.442809999999999981e-01 -1.608499999999999860e-02 9.104349999999999943e-01 3.178449999999999886e-01 4.282569999999999988e-01 2.538059999999999761e-01 3.313380000000000214e-01 3.941799999999999748e-01 -4.174340000000000273e-01 8.217250000000000387e-01 -2.696109999999999896e-01 5.191890000000000116e-01 1.708899999999999864e-01 -4.813740000000000241e-01 -7.415399999999999769e-02 3.185000000000000331e-02 -2.720130000000000048e-01 5.436760000000000481e-01 -2.118700000000000028e-01 2.802499999999999991e-01 -8.324479999999999658e-01 -4.699300000000000005e-02 -5.004650000000000487e-01 2.856759999999999855e-01 -9.473299999999999776e-02 -1.007201000000000013e+00 -7.442990000000000439e-01 -1.458412999999999959e+00 5.731990000000000141e-01 -5.304099999999999787e-02 -5.066140000000000088e-01 1.953360000000000096e-01 2.129999999999999949e-01 4.988349999999999729e-01
7.662480000000000402e-01 5.296900000000000219e-02 -1.639362999999999904e+00 -1.659788999999999959e+00 8.041599999999999859e-01 6.285150000000000459e-01 7.598179999999999934e-01 -4.297489999999999921e-01 -6.285579999999999501e-01 2.979939999999999811e-01 4.549139999999999850e-01 2.344690000000000107e-01 -2.315369999999999928e-01 -3.214049999999999963e-01 6.447899999999999465e-02 -6.967929999999999957e-01 3.482359999999999900e-01 1.915439999999999920e-01 -1.109060000000000046e-01 -1.794119999999999882e-01 4.045200000000000184e-02 1.407521000000000022e+00 3.889540000000000219e-01 2.296159999999999868e-01 -1.407778999999999892e+00 -5.565830000000000499e-01 -2.337980000000000058e-01 1.044224999999999959e+00 3.576579999999999759e-01 -2.889500000000000055e-02 3.544769999999999865e-01 -3.873900000000000121e-01 8.878999999999999740e-03 9.777890000000000192e-01 -4.479029999999999956e-01 3.333409999999999984e-01 3.746329999999999938e-01 6.586799999999999600e-02 -1.007214999999999971e+00 4.471840000000000259e-01 -5.703470000000000484e-01 2.145891000000000215e+00 -8.544990000000000085e-01 5.322559999999999514e-01 -1.371120000000000116e-01 -5.807539999999999925e-01 -1.751419999999999921e-01 -4.008399999999999741e-01 -1.022213000000000038e+00 3.349929999999999852e-01 -8.206769999999999898e-01 -2.163799999999999890e-01 -1.514065999999999912e+00 3.499079999999999968e-01 1.400780000000000081e-01 9.278969999999999718e-01 -3.065700000000000022e-02 2.106830000000000092e-01 3.140919999999999823e-01 7.000189999999999468e-01