4.215958448000000303e+00 0.000000000000000000e+00 0.000000000000000000e+00 -8.512100000000000037e-05 7.302204996999999587e+00 0.000000000000000000e+00 -1.421550000000000103e-04 1.747379999999999929e-04 2.974866885400000172e+01
4.170382459999999902e+00 0.000000000000000000e+00 0.000000000000000000e+00 -5.338157999999999966e-03 7.311414816000000094e+00 0.000000000000000000e+00 1.099429420000000018e-01 1.019968490000000005e-01 3.030072901699999832e+01
4.282395949999999729e+00 0.000000000000000000e+00 0.000000000000000000e+00 -9.226631899999999942e-02 7.098963579000000301e+00 0.000000000000000000e+00 6.854143270000000454e-01 -6.342880279999999482e-01 3.036925778499999851e+01
4.440832374000000193e+00 0.000000000000000000e+00 0.000000000000000000e+00 1.597355799999999881e-01 7.437273787999999719e+00 0.000000000000000000e+00 8.367692949999999685e-01 1.135219499999999965e-01 3.178124107700000067e+01
4.248827272999999849e+00 0.000000000000000000e+00 0.000000000000000000e+00 5.834576100000000293e-02 7.593926650000000222e+00 0.000000000000000000e+00 -3.829230929999999922e-01 1.672508179999999955e-01 3.017973447700000023e+01
4.277787906000000362e+00 0.000000000000000000e+00 0.000000000000000000e+00 -9.216703699999999333e-02 7.091324785000000297e+00 0.000000000000000000e+00 6.846767919999999785e-01 -6.336055069999999567e-01 3.033657914200000150e+01
4.211229503000000207e+00 0.000000000000000000e+00 0.000000000000000000e+00 -5.390442999999999971e-03 7.383026873999999573e+00 0.000000000000000000e+00 1.110197839999999964e-01 1.029958630000000069e-01 3.059751118999999875e+01
4.231491419000000143e+00 0.000000000000000000e+00 0.000000000000000000e+00 -4.762099200000000088e-02 7.406799696000000210e+00 0.000000000000000000e+00 -5.501498489999999686e-01 4.660686399999999785e-01 2.968907033200000001e+01
4.379639897999999754e+00 0.000000000000000000e+00 0.000000000000000000e+00 -4.928824799999999978e-02 7.666118692999999595e+00 0.000000000000000000e+00 -5.694111099999999981e-01 4.823861389999999916e-01 3.072851250100000087e+01
4.332210923999999963e+00 0.000000000000000000e+00 0.000000000000000000e+00 -9.333960700000000499e-02 7.181542277000000141e+00 0.000000000000000000e+00 6.933874100000000373e-01 -6.416663839999999785e-01 3.072252819499999887e+01
4.297420359000000190e+00 0.000000000000000000e+00 0.000000000000000000e+00 1.545770870000000019e-01 7.197094844999999630e+00 0.000000000000000000e+00 8.097467090000000089e-01 1.098558780000000040e-01 3.075489929000000089e+01
4.254285354000000297e+00 0.000000000000000000e+00 0.000000000000000000e+00 -9.166066300000000333e-02 7.052364408999999945e+00 0.000000000000000000e+00 6.809151159999999869e-01 -6.301244209999999901e-01 3.016990724500000098e+01
4.263876317000000249e+00 0.000000000000000000e+00 0.000000000000000000e+00 -8.608899999999999517e-05 7.385200621000000076e+00 0.000000000000000000e+00 -1.437710000000000030e-04 1.767240000000000109e-04 3.008678717900000166e+01
4.210841396000000181e+00 0.000000000000000000e+00 0.000000000000000000e+00 -5.389945999999999626e-03 7.382346454000000335e+00 0.000000000000000000e+00 1.110095529999999969e-01 1.029863699999999938e-01 3.059469132199999919e+01
4.355797568999999925e+00 0.000000000000000000e+00 0.000000000000000000e+00 1.566769000000000078e-01 7.294861943999999987e+00 0.000000000000000000e+00 8.207465069999999585e-01 1.113481870000000012e-01 3.117268137099999947e+01
4.236323222000000221e+00 0.000000000000000000e+00 0.000000000000000000e+00 5.817405199999999693e-02 7.571578165000000027e+00 0.000000000000000000e+00 -3.817961719999999892e-01 1.667586080000000026e-01 3.009091727399999883e+01
4.261530920000000222e+00 0.000000000000000000e+00 0.000000000000000000e+00 -8.604200000000000053e-05 7.381138302000000095e+00 0.000000000000000000e+00 -1.436920000000000059e-04 1.766270000000000014e-04 3.007023757800000041e+01
4.290804319000000255e+00 0.000000000000000000e+00 0.000000000000000000e+00 -5.492300000000000307e-03 7.522535539999999799e+00 0.000000000000000000e+00 1.131175989999999992e-01 1.049420580000000047e-01 3.117567757500000170e+01
4.166021523999999587e+00 0.000000000000000000e+00 0.000000000000000000e+00 -4.688419800000000193e-02 7.292201236999999558e+00 0.000000000000000000e+00 -5.416378960000000076e-01 4.588575970000000059e-01 2.922971921599999945e+01
4.352582079000000270e+00 0.000000000000000000e+00 0.000000000000000000e+00 -4.898374099999999731e-02 7.618756706000000101e+00 0.000000000000000000e+00 -5.658932359999999662e-01 4.794059130000000168e-01 3.053866891999999922e+01
4.257047436999999768e+00 0.000000000000000000e+00 0.000000000000000000e+00 5.845864199999999816e-02 7.608618543000000400e+00 0.000000000000000000e+00 -3.836639299999999864e-01 1.675743959999999866e-01 3.023812290700000105e+01
4.306600803000000255e+00 0.000000000000000000e+00 0.000000000000000000e+00 1.549073049999999951e-01 7.212469772999999584e+00 0.000000000000000000e+00 8.114765459999999653e-01 1.100905590000000045e-01 3.082060001700000029e+01
4.226994409999999647e+00 0.000000000000000000e+00 0.000000000000000000e+00 -5.410622000000000348e-03 7.410665533000000416e+00 0.000000000000000000e+00 1.114353909999999948e-01 1.033814319999999953e-01 3.071205420400000108e+01
4.204951111999999824e+00 0.000000000000000000e+00 0.000000000000000000e+00 -5.382406000000000169e-03 7.372019748999999678e+00 0.000000000000000000e+00 1.108542680000000058e-01 1.028423090000000067e-01 3.055189431100000164e+01
4.249666784999999614e+00 0.000000000000000000e+00 0.000000000000000000e+00 -8.580200000000000283e-05 7.360589154000000356e+00 0.000000000000000000e+00 -1.432919999999999962e-04 1.761350000000000068e-04 2.998652179899999837e+01
4.231081024999999940e+00 0.000000000000000000e+00 0.000000000000000000e+00 -8.542699999999999372e-05 7.328397890999999831e+00 0.000000000000000000e+00 -1.426649999999999902e-04 1.753649999999999990e-04 2.985537686099999988e+01
4.221535788999999816e+00 0.000000000000000000e+00 0.000000000000000000e+00 5.797098800000000107e-02 7.545148594999999681e+00 0.000000000000000000e+00 -3.804634639999999735e-01 1.661765159999999963e-01 2.998588104599999937e+01
4.212108079000000060e+00 0.000000000000000000e+00 0.000000000000000000e+00 -8.504399999999999417e-05 7.295536005999999851e+00 0.000000000000000000e+00 -1.420249999999999963e-04 1.745790000000000102e-04 2.972149985700000130e+01
4.171874826999999897e+00 0.000000000000000000e+00 0.000000000000000000e+00 1.500612470000000087e-01 6.986837754999999817e+00 0.000000000000000000e+00 7.860906380000000082e-01 1.066465300000000033e-01 2.985642069700000079e+01
4.272017561000000185e+00 0.000000000000000000e+00 0.000000000000000000e+00 1.536633550000000015e-01 7.154551567999999584e+00 0.000000000000000000e+00 8.049601560000000378e-01 1.092064999999999980e-01 3.057310173899999839e+01
4.187124433000000145e+00 0.000000000000000000e+00 0.000000000000000000e+00 -4.712168900000000132e-02 7.329139753999999840e+00 0.000000000000000000e+00 -5.443815539999999897e-01 4.611819320000000166e-01 2.937778184300000106e+01
4.325283809000000090e+00 0.000000000000000000e+00 0.000000000000000000e+00 -8.732900000000000363e-05 7.491560800000000242e+00 0.000000000000000000e+00 -1.458420000000000040e-04 1.792689999999999941e-04 3.052009105899999852e+01
4.266874117000000410e+00 0.000000000000000000e+00 0.000000000000000000e+00 -9.193189400000000011e-02 7.073232906000000320e+00 0.000000000000000000e+00 6.829299970000000108e-01 -6.319890080000000188e-01 3.025918235900000042e+01
4.258127482999999991e+00 0.000000000000000000e+00 0.000000000000000000e+00 5.847347299999999803e-02 7.610548909000000251e+00 0.000000000000000000e+00 -3.837612690000000160e-01 1.676169110000000073e-01 3.024579455399999972e+01
4.153438473999999658e+00 0.000000000000000000e+00 0.000000000000000000e+00 1.493980960000000080e-01 6.955961516000000344e+00 0.000000000000000000e+00 7.826167459999999743e-01 1.061752380000000051e-01 2.972447917899999936e+01
4.289619998000000045e+00 0.000000000000000000e+00 0.000000000000000000e+00 -8.660899999999999697e-05 7.429789684000000172e+00 0.000000000000000000e+00 -1.446390000000000089e-04 1.777910000000000059e-04 3.026843988099999905e+01
4.193470991999999953e+00 0.000000000000000000e+00 0.000000000000000000e+00 -8.466699999999999422e-05 7.263255842999999601e+00 0.000000000000000000e+00 -1.413970000000000016e-04 1.738060000000000093e-04 2.958999274199999974e+01
4.209089499000000067e+00 0.000000000000000000e+00 0.000000000000000000e+00 -8.498299999999999594e-05 7.290307707000000192e+00 0.000000000000000000e+00 -1.419240000000000052e-04 1.744539999999999936e-04 2.970020013399999925e+01
4.304272907999999731e+00 0.000000000000000000e+00 0.000000000000000000e+00 -5.509540000000000270e-03 7.546148348000000006e+00 0.000000000000000000e+00 1.134726689999999982e-01 1.052714649999999946e-01 3.127353624199999871e+01
4.272549619000000298e+00 0.000000000000000000e+00 0.000000000000000000e+00 1.536824930000000033e-01 7.155442629999999582e+00 0.000000000000000000e+00 8.050604099999999486e-01 1.092201019999999995e-01 3.057690946199999971e+01
4.246742794000000210e+00 0.000000000000000000e+00 0.000000000000000000e+00 -4.779263100000000208e-02 7.433495692000000155e+00 0.000000000000000000e+00 -5.521327289999999888e-01 4.677484700000000273e-01 2.979607731899999834e+01
4.174600350000000404e+00 0.000000000000000000e+00 0.000000000000000000e+00 5.732646100000000217e-02 7.461260911000000107e+00 0.000000000000000000e+00 -3.762334339999999777e-01 1.643289500000000014e-01 2.965249515200000019e+01
4.328509152999999721e+00 0.000000000000000000e+00 0.000000000000000000e+00 -4.871282500000000126e-02 7.576619470999999884e+00 0.000000000000000000e+00 -5.627634369999999775e-01 4.767544519999999952e-01 3.036976799700000029e+01
4.344839794000000310e+00 0.000000000000000000e+00 0.000000000000000000e+00 -4.889660900000000060e-02 7.605204614999999890e+00 0.000000000000000000e+00 -5.648866369999999693e-01 4.785531559999999796e-01 3.048434735200000034e+01
4.198262674999999611e+00 0.000000000000000000e+00 0.000000000000000000e+00 -4.724703799999999815e-02 7.348636125999999713e+00 0.000000000000000000e+00 -5.458296729999999597e-01 4.624087299999999900e-01 2.945593019200000029e+01
4.243329712000000420e+00 0.000000000000000000e+00 0.000000000000000000e+00 -9.142461799999999916e-02 7.034203148999999655e+00 0.000000000000000000e+00 6.791616219999999648e-01 -6.285017229999999566e-01 3.009221365300000173e+01
4.238131633000000065e+00 0.000000000000000000e+00 0.000000000000000000e+00 -9.131262299999999554e-02 7.025586251000000004e+00 0.000000000000000000e+00 6.783296490000000345e-01 -6.277318090000000295e-01 3.005535069400000125e+01
4.289938794000000222e+00 0.000000000000000000e+00 0.000000000000000000e+00 -8.661499999999999657e-05 7.430341849999999582e+00 0.000000000000000000e+00 -1.446499999999999923e-04 1.778039999999999937e-04 3.027068936699999924e+01
4.346351216999999600e+00 0.000000000000000000e+00 0.000000000000000000e+00 1.563371169999999977e-01 7.279041688000000399e+00 0.000000000000000000e+00 8.189665659999999514e-01 1.111067079999999985e-01 3.110507765099999844e+01
4.341913066000000043e+00 0.000000000000000000e+00 0.000000000000000000e+00 -4.886367199999999689e-02 7.600081673000000038e+00 0.000000000000000000e+00 -5.645061230000000263e-01 4.782307980000000125e-01 3.046381278899999856e+01
4.406870193999999685e+00 0.000000000000000000e+00 0.000000000000000000e+00 1.585139690000000046e-01 7.380395703999999668e+00 0.000000000000000000e+00 8.303699289999999511e-01 1.126537670000000019e-01 3.153818748899999846e+01
4.275515293999999855e+00 0.000000000000000000e+00 0.000000000000000000e+00 -4.811643499999999907e-02 7.483859058000000175e+00 0.000000000000000000e+00 -5.558735350000000297e-01 4.709175560000000149e-01 2.999795148100000119e+01
4.168936813000000186e+00 0.000000000000000000e+00 0.000000000000000000e+00 -5.336307000000000203e-03 7.308880342000000141e+00 0.000000000000000000e+00 1.099048309999999945e-01 1.019614920000000008e-01 3.029022538599999947e+01
4.357934705999999991e+00 0.000000000000000000e+00 0.000000000000000000e+00 1.567537720000000134e-01 7.298441107999999566e+00 0.000000000000000000e+00 8.211492000000000235e-01 1.114028190000000001e-01 3.118797599399999854e+01
4.265249634999999984e+00 0.000000000000000000e+00 0.000000000000000000e+00 -9.189689400000000674e-02 7.070539988000000164e+00 0.000000000000000000e+00 6.826699920000000033e-01 -6.317483980000000443e-01 3.024766209699999919e+01
4.357389494999999613e+00 0.000000000000000000e+00 0.000000000000000000e+00 -8.797700000000000149e-05 7.547169103999999962e+00 0.000000000000000000e+00 -1.469239999999999912e-04 1.805999999999999988e-04 3.074663537099999999e+01
4.250281356000000343e+00 0.000000000000000000e+00 0.000000000000000000e+00 -8.581400000000000204e-05 7.361653615999999900e+00 0.000000000000000000e+00 -1.433130000000000016e-04 1.761610000000000096e-04 2.999085834299999931e+01
4.263872321000000021e+00 0.000000000000000000e+00 0.000000000000000000e+00 -8.608899999999999517e-05 7.385193700000000305e+00 0.000000000000000000e+00 -1.437710000000000030e-04 1.767240000000000109e-04 3.008675898399999937e+01
4.359750739999999958e+00 0.000000000000000000e+00 0.000000000000000000e+00 1.568190939999999922e-01 7.301482508000000315e+00 0.000000000000000000e+00 8.214913879999999891e-01 1.114492420000000039e-01 3.120097261800000155e+01
4.409236995999999742e+00 0.000000000000000000e+00 0.000000000000000000e+00 1.585991019999999918e-01 7.384359500000000409e+00 0.000000000000000000e+00 8.308158970000000254e-01 1.127142700000000053e-01 3.155512573200000048e+01
4.295835766999999805e+00 0.000000000000000000e+00 0.000000000000000000e+00 -9.255588700000000335e-02 7.121242875000000083e+00 0.000000000000000000e+00 6.875654230000000089e-01 -6.362786689999999634e-01 3.046456827300000114e+01
4.180415088000000168e+00 0.000000000000000000e+00 0.000000000000000000e+00 5.740631100000000153e-02 7.471653588999999762e+00 0.000000000000000000e+00 -3.767574839999999758e-01 1.645578410000000102e-01 2.969379766500000173e+01
4.204121492999999710e+00 0.000000000000000000e+00 0.000000000000000000e+00 5.773185200000000017e-02 7.514024034000000185e+00 0.000000000000000000e+00 -3.788940100000000033e-01 1.654910199999999887e-01 2.986218601499999892e+01
4.251981444000000110e+00 0.000000000000000000e+00 0.000000000000000000e+00 -8.584899999999999747e-05 7.364598233999999799e+00 0.000000000000000000e+00 -1.433700000000000046e-04 1.762310000000000005e-04 3.000285450699999856e+01
4.393839058000000186e+00 0.000000000000000000e+00 0.000000000000000000e+00 1.580452420000000024e-01 7.358571838999999670e+00 0.000000000000000000e+00 8.279145209999999588e-01 1.123206489999999946e-01 3.144492891999999884e+01
4.230649598000000289e+00 0.000000000000000000e+00 0.000000000000000000e+00 -5.415300999999999969e-03 7.417073721000000397e+00 0.000000000000000000e+00 1.115317519999999979e-01 1.034708280000000008e-01 3.073861168999999904e+01
4.498267485000000399e+00 0.000000000000000000e+00 0.000000000000000000e+00 -9.691737699999999900e-02 7.456815627000000113e+00 0.000000000000000000e+00 7.199654159999999692e-01 -6.662618879999999688e-01 3.190014338299999963e+01
4.208226932999999725e+00 0.000000000000000000e+00 0.000000000000000000e+00 -4.735917500000000335e-02 7.366077555000000388e+00 0.000000000000000000e+00 -5.471251579999999448e-01 4.635062220000000233e-01 2.952584160400000002e+01
4.348033971000000442e+00 0.000000000000000000e+00 0.000000000000000000e+00 -9.368052300000000165e-02 7.207772273999999868e+00 0.000000000000000000e+00 6.959199510000000366e-01 -6.440100180000000174e-01 3.083473972199999835e+01
4.290665779000000235e+00 0.000000000000000000e+00 0.000000000000000000e+00 -4.828693800000000147e-02 7.510378454999999676e+00 0.000000000000000000e+00 -5.578432979999999874e-01 4.725862739999999729e-01 3.010425059700000006e+01
4.275433467000000043e+00 0.000000000000000000e+00 0.000000000000000000e+00 5.871112199999999753e-02 7.641479884999999861e+00 0.000000000000000000e+00 -3.853209599999999901e-01 1.682981440000000106e-01 3.036872023900000173e+01
4.273254920000000290e+00 0.000000000000000000e+00 0.000000000000000000e+00 -8.627800000000000302e-05 7.401444727000000334e+00 0.000000000000000000e+00 -1.440869999999999911e-04 1.771130000000000100e-04 3.015296452600000165e+01
4.247057586000000384e+00 0.000000000000000000e+00 0.000000000000000000e+00 -4.779617299999999736e-02 7.434046705000000088e+00 0.000000000000000000e+00 -5.521736560000000127e-01 4.677831419999999851e-01 2.979828596999999846e+01
4.227628092999999865e+00 0.000000000000000000e+00 0.000000000000000000e+00 -8.535700000000000286e-05 7.322417276999999558e+00 0.000000000000000000e+00 -1.425490000000000069e-04 1.752219999999999971e-04 2.983101226100000147e+01
4.208682753999999804e+00 0.000000000000000000e+00 0.000000000000000000e+00 -8.497500000000000550e-05 7.289603210000000111e+00 0.000000000000000000e+00 -1.419100000000000016e-04 1.744369999999999970e-04 2.969733006199999892e+01
4.310610922999999595e+00 0.000000000000000000e+00 0.000000000000000000e+00 1.550515480000000113e-01 7.219185711999999810e+00 0.000000000000000000e+00 8.122321580000000374e-01 1.101930710000000035e-01 3.084929882000000134e+01
4.157804662000000206e+00 0.000000000000000000e+00 0.000000000000000000e+00 -5.322058000000000171e-03 7.289363720999999963e+00 0.000000000000000000e+00 1.096113559999999931e-01 1.016892280000000065e-01 3.020934256500000004e+01
4.304696910999999737e+00 0.000000000000000000e+00 0.000000000000000000e+00 -4.844484300000000132e-02 7.534938539999999740e+00 0.000000000000000000e+00 -5.596675309999999959e-01 4.741317030000000154e-01 3.020269609500000030e+01
4.276807361999999557e+00 0.000000000000000000e+00 0.000000000000000000e+00 -4.813097599999999893e-02 7.486120693000000159e+00 0.000000000000000000e+00 -5.560415210000000386e-01 4.710598679999999927e-01 3.000701691500000123e+01
4.359574514000000178e+00 0.000000000000000000e+00 0.000000000000000000e+00 -4.906243300000000251e-02 7.630996257999999699e+00 0.000000000000000000e+00 -5.668023450000000407e-01 4.801760800000000051e-01 3.058772937199999831e+01
4.253595018000000394e+00 0.000000000000000000e+00 0.000000000000000000e+00 -9.164578900000000528e-02 7.051220031999999804e+00 0.000000000000000000e+00 6.808046250000000521e-01 -6.300221719999999914e-01 3.016501162000000136e+01
4.244808243999999675e+00 0.000000000000000000e+00 0.000000000000000000e+00 1.526846430000000088e-01 7.108982827000000171e+00 0.000000000000000000e+00 7.998332070000000460e-01 1.085109429999999986e-01 3.037837566400000000e+01
4.286588666000000103e+00 0.000000000000000000e+00 0.000000000000000000e+00 -5.486903999999999913e-03 7.515144756999999842e+00 0.000000000000000000e+00 1.130064630000000014e-01 1.048389539999999981e-01 3.114504791999999966e+01
4.390750745000000066e+00 0.000000000000000000e+00 0.000000000000000000e+00 -4.941328899999999913e-02 7.685567112000000201e+00 0.000000000000000000e+00 -5.708556670000000111e-01 4.836099200000000264e-01 3.080646863400000157e+01
4.260287145999999581e+00 0.000000000000000000e+00 0.000000000000000000e+00 -4.794505799999999873e-02 7.457203717999999704e+00 0.000000000000000000e+00 -5.538936740000000025e-01 4.692402840000000075e-01 2.989110746100000071e+01
4.390622223000000268e+00 0.000000000000000000e+00 0.000000000000000000e+00 -4.941184299999999696e-02 7.685342145999999985e+00 0.000000000000000000e+00 -5.708389579999999519e-01 4.835957639999999835e-01 3.080556689499999834e+01
4.284087895999999951e+00 0.000000000000000000e+00 0.000000000000000000e+00 -5.483703000000000362e-03 7.510760467999999968e+00 0.000000000000000000e+00 1.129405349999999947e-01 1.047777919999999946e-01 3.112687809000000172e+01
4.388622146000000335e+00 0.000000000000000000e+00 0.000000000000000000e+00 1.578575909999999916e-01 7.349834827999999654e+00 0.000000000000000000e+00 8.269315179999999765e-01 1.121872879999999961e-01 3.140759359200000134e+01
4.261671655999999864e+00 0.000000000000000000e+00 0.000000000000000000e+00 -9.181980400000000486e-02 7.064608744000000051e+00 0.000000000000000000e+00 6.820973230000000331e-01 -6.312184450000000169e-01 3.022228832400000087e+01
4.223600148000000054e+00 0.000000000000000000e+00 0.000000000000000000e+00 -5.406277000000000131e-03 7.404714794000000211e+00 0.000000000000000000e+00 1.113459090000000068e-01 1.032984170000000035e-01 3.068739253200000050e+01
4.363111059999999597e+00 0.000000000000000000e+00 0.000000000000000000e+00 -4.910223300000000207e-02 7.637186626000000089e+00 0.000000000000000000e+00 -5.672621429999999965e-01 4.805656059999999785e-01 3.061254255400000091e+01
4.239525046999999880e+00 0.000000000000000000e+00 0.000000000000000000e+00 -9.134264500000000009e-02 7.027896124999999827e+00 0.000000000000000000e+00 6.785526710000000516e-01 -6.279381950000000323e-01 3.006523230000000169e+01
4.405690607000000369e+00 0.000000000000000000e+00 0.000000000000000000e+00 -4.958142100000000052e-02 7.711717836000000048e+00 0.000000000000000000e+00 -5.727980470000000324e-01 4.852554390000000106e-01 3.091128997799999922e+01
4.282277821000000095e+00 0.000000000000000000e+00 0.000000000000000000e+00 1.540324140000000064e-01 7.171734913999999961e+00 0.000000000000000000e+00 8.068934580000000079e-01 1.094687859999999985e-01 3.064653026799999935e+01
4.314229518000000319e+00 0.000000000000000000e+00 0.000000000000000000e+00 -4.855212300000000258e-02 7.551624409000000426e+00 0.000000000000000000e+00 -5.609068959999999882e-01 4.751816520000000099e-01 3.026957895299999990e+01
4.277856683000000437e+00 0.000000000000000000e+00 0.000000000000000000e+00 -9.216851900000000430e-02 7.091438797000000349e+00 0.000000000000000000e+00 6.846877999999999576e-01 -6.336156929999999798e-01 3.033706688299999854e+01
4.231862929000000051e+00 0.000000000000000000e+00 0.000000000000000000e+00 -8.544300000000000170e-05 7.329752178999999757e+00 0.000000000000000000e+00 -1.426920000000000087e-04 1.753969999999999878e-04 2.986089413499999878e+01
4.377876158000000295e+00 0.000000000000000000e+00 0.000000000000000000e+00 1.574710609999999955e-01 7.331838009000000156e+00 0.000000000000000000e+00 8.249066919999999969e-01 1.119125859999999945e-01 3.133068890099999848e+01
4.322307766999999856e+00 0.000000000000000000e+00 0.000000000000000000e+00 -9.312623899999999955e-02 7.165125730999999831e+00 0.000000000000000000e+00 6.918023709999999715e-01 -6.401995759999999924e-01 3.065229846100000088e+01
4.211386420000000186e+00 0.000000000000000000e+00 0.000000000000000000e+00 -8.502900000000000193e-05 7.294286063999999570e+00 0.000000000000000000e+00 -1.420009999999999979e-04 1.745489999999999986e-04 2.971640767999999966e+01
