-1.207430000000000031e-01 1.167600000000000061e-02 2.038490000000000024e-01 3.677999999999999846e-03 -3.420700000000000129e-02 1.353749999999999953e-01 4.970100000000000212e-02 -2.057759999999999867e-01 1.730690000000000006e-01 -9.999500000000000055e-02 2.079139999999999877e-01 -1.584260000000000113e-01 -7.814500000000000612e-02 -2.753869999999999929e-01 3.869969999999999799e-01 -3.016039999999999832e-01 1.576039999999999941e-01 3.845400000000000207e-02 -1.104720000000000008e-01 -4.990829999999999989e-01 -2.430700000000000083e-01 3.744800000000000212e-02 4.952559999999999740e-01 1.483430000000000026e-01 -4.159530000000000172e-01 -2.003419999999999923e-01 -6.462590000000000279e-01 3.374999999999999962e-03 4.543010000000000104e-01 -4.406749999999999834e-01 3.597029999999999950e-01 6.875499999999999667e-02 -2.476720000000000033e-01 6.174030000000000351e-01 2.459799999999999834e-02 4.102410000000000223e-01 1.016699999999999965e-01 -1.385669999999999957e-01 -9.472400000000000264e-02 2.511599999999999944e-02 2.169899999999999954e-02 -2.143770000000000120e-01 3.020140000000000047e-01 2.426399999999999946e-01 1.710899999999999921e-01 -1.128299999999999997e-01 7.240599999999999814e-02 8.467999999999999833e-03 -7.957000000000000184e-02 1.336500000000000014e-02 1.254109999999999947e-01 -1.498329999999999940e-01 -8.860200000000000020e-02 2.673829999999999818e-01 2.779999999999999811e-04 -1.468559999999999865e-01 -6.626929999999999765e-01 3.492250000000000076e-01 2.607100000000000042e-02 -2.710960000000000036e-01 2.152940000000000131e-01 2.356060000000000099e-01 5.072259999999999547e-01 -7.549400000000000555e-02 -4.897200000000000164e-02 1.288880000000000026e-01 -1.158669999999999978e-01 -2.360019999999999896e-01 -3.573799999999999893e-02 1.467880000000000018e-01 1.709549999999999959e-01 1.822620000000000073e-01 -2.571140000000000092e-01 -3.606060999999999961e+00 3.628560000000000119e-01 6.869920000000000471e-01 3.420824999999999783e+00 -2.633989999999999942e-01 -2.047279999999999933e-01 -9.332699999999999330e-02 1.358729999999999938e-01 -5.701469999999999594e-01 1.385349999999999915e-01 -3.741749999999999798e-01 -6.733000000000000269e-03 1.945630000000000137e-01 1.809060000000000112e-01 -1.994569999999999954e-01 -3.835870000000000113e-01 8.561000000000000554e-02
4.966030000000000166e-01 4.026910000000000212e-01 -4.774160000000000070e-01 -5.888989999999999503e-01 1.006040999999999963e+00 -1.523892999999999942e+00 -2.543130000000000113e-01 -2.297000000000000083e-02 -4.578499999999999792e-01 -3.728810000000000180e-01 3.835540000000000060e-01 8.088440000000000074e-01 2.516930000000000001e-01 1.136282000000000014e+00 2.766359999999999930e-01 -5.787919999999999732e-01 2.920050000000000145e-01 4.447889999999999899e-01 9.437820000000000098e-01 -1.114419999999999994e-01 -4.609539999999999749e-01 2.879120000000000013e-01 4.153979999999999895e-01 1.273999999999999959e-03 2.632610000000000228e-01 3.521819999999999951e-01 3.914670000000000094e-01 1.282790000000000041e-01 -8.757099999999999607e-02 -1.912550000000000083e-01 2.554759999999999809e-01 6.926210000000000422e-01 1.051800999999999986e+00 2.934499999999999956e-02 -1.799219999999999986e-01 7.040399999999999991e-01 -6.941850000000000520e-01 -4.213180000000000258e-01 1.438609999999999889e-01 9.393820000000000503e-01 -9.481420000000000403e-01 1.109428999999999998e+00 6.206509999999999527e-01 -4.368230000000000168e-01 -2.582340000000000191e-01 -7.758500000000000119e-02 1.730369999999999964e-01 1.866210000000000091e-01 1.442599999999999959e-02 -7.394800000000000262e-01 -9.051199999999999524e-02 -1.040009999999999962e-01 8.555300000000000127e-01 1.000510000000000010e-01 -6.857459999999999667e-01 -5.801939999999999875e-01 -7.826870000000000216e-01 -6.021000000000000310e-03 1.418709999999999971e-01 4.044559999999999822e-01 -5.890410000000000368e-01 -6.946259999999999657e-01 1.451290000000000080e-01 -3.529939999999999745e-01 4.808500000000000274e-02 3.049229999999999996e-01 -7.283199999999999397e-02 -3.727070000000000105e-01 -1.945409999999999917e-01 1.136263999999999941e+00 -6.056259999999999977e-01 -6.832380000000000120e-01 -3.772699999999999665e-02 -1.007539999999999963e-01 -1.501606999999999914e+00 -6.141349999999999865e-01 -1.075584000000000096e+00 -1.388608999999999982e+00 9.618200000000000360e-02 2.462529999999999997e-01 1.152320000000000011e-01 4.395000000000000018e-01 1.089099999999999964e-02 1.215980000000000061e+00 -7.148309999999999942e-01 1.566000000000000031e-02 5.841420000000000501e-01 -1.587729999999999975e-01 2.050589999999999913e-01 2.212000000000000077e-02
2.228070000000000050e-01 -1.043240000000000001e-01 -1.543695000000000039e+00 -8.454629999999999646e-01 9.271800000000000042e-01 8.121890000000000498e-01 1.089018000000000042e+00 8.239999999999999547e-01 1.840749999999999886e-01 2.404799999999999993e-01 -9.911780000000000035e-01 1.277169999999999972e-01 5.989729999999999777e-01 9.129900000000000515e-02 1.227535000000000043e+00 -2.155899999999999830e-02 5.491559999999999775e-01 7.550869999999999527e-01 1.719459999999999877e-01 2.247530000000000083e-01 4.885309999999999930e-01 -2.768090000000000273e-01 1.061144000000000087e+00 -8.053270000000000151e-01 6.851739999999999498e-01 4.992630000000000123e-01 1.044519999999999893e+00 -2.083700000000000135e-02 -2.645080000000000209e-01 8.209079999999999711e-01 2.487800000000000011e-01 -4.677800000000000014e-02 -1.135653999999999941e+00 6.986809999999999965e-01 -2.021880000000000066e-01 -1.020410000000000067e-01 -4.231349999999999834e-01 -7.524380000000000512e-01 1.550729999999999942e+00 6.553470000000000129e-01 -1.864119999999999944e-01 3.440960000000000130e-01 -4.493860000000000077e-01 -7.718099999999999961e-02 9.743400000000000671e-02 -8.529539999999999900e-01 2.819639999999999924e-01 -5.401850000000000263e-01 -8.476799999999999613e-02 1.232449999999999934e-01 7.538470000000000448e-01 6.355189999999999451e-01 -1.781429999999999958e-01 -9.161820000000000519e-01 -5.244039999999999813e-01 -8.715829999999999966e-01 -1.179300999999999933e+00 3.407499999999999973e-01 9.080859999999999488e-01 -2.717089999999999783e-01 6.987400000000000555e-02 -2.037930000000000019e-01 -9.809800000000000464e-02 3.818909999999999805e-01 -1.769229999999999969e-01 -9.588130000000000264e-01 -2.280399999999999927e-01 -3.669600000000000084e-01 -5.577140000000000430e-01 -2.612579999999999902e-01 -3.484229999999999827e-01 -2.474850000000000105e-01 -9.235000000000000153e-02 3.057699999999999863e-01 2.980670000000000264e-01 -9.021899999999999364e-02 -1.069549999999999945e-01 -7.537559999999999816e-01 -2.896029999999999993e-01 2.539139999999999731e-01 -1.432180000000000120e-01 -4.508460000000000245e-01 -2.189780000000000060e-01 3.009310000000000040e-01 -2.194909999999999917e-01 -5.645710000000000450e-01 1.403404000000000096e+00 -9.081169999999999520e-01 -3.884360000000000035e-01 -9.558929999999999927e-01
-1.388610000000000122e-01 1.164710000000000051e-01 6.833949999999999747e-01 7.805640000000000356e-01 -5.826719999999999677e-01 5.845359999999999445e-01 8.067079999999999806e-01 4.386180000000000079e-01 1.218199999999999977e-01 6.332809999999999828e-01 3.459240000000000093e-01 -1.745649999999999979e-01 4.446169999999999844e-01 4.255500000000000255e-02 6.963700000000000445e-01 7.517730000000000246e-01 -4.331400000000000250e-01 -3.690780000000000172e-01 -3.131929999999999992e-01 -5.802469999999999573e-01 -9.749379999999999713e-01 -1.198779999999999984e-01 3.605349999999999944e-01 -1.583309999999999995e-01 1.088449999999999973e-01 -5.249340000000000117e-01 -4.638199999999999962e-02 9.192400000000000571e-02 8.469799999999999551e-02 9.675730000000000164e-01 5.556109999999999660e-01 -7.891000000000000444e-03 -1.386129999999999862e-01 -5.308159999999999545e-01 3.712200000000000222e-02 -9.388020000000000254e-01 1.862260000000000026e-01 1.018779999999999963e-01 1.151750000000000052e+00 3.139299999999999868e-01 -2.040700000000000014e-01 -7.619179999999999842e-01 -2.823820000000000219e-01 -4.844559999999999977e-01 5.255900000000000016e-01 -7.745009999999999950e-01 -1.588400000000000090e-01 -4.524999999999999856e-02 -1.733659999999999923e-01 4.229160000000000141e-01 -3.693100000000000271e-01 -6.562729999999999952e-01 -1.792060000000000042e-01 8.369640000000000413e-01 -5.836959999999999926e-01 -9.956600000000000172e-02 -1.819719999999999949e-01 -4.634249999999999758e-01 5.991210000000000147e-01 -7.774100000000000454e-02 -2.652809999999999890e-01 1.320340000000000125e-01 4.782000000000000139e-01 3.232240000000000113e-01 5.279030000000000111e-01 5.994700000000000029e-02 -7.276460000000000150e-01 -6.089250000000000496e-01 -2.109890000000000099e-01 2.099620000000000097e-01 3.906780000000000252e-01 -4.111279999999999935e-01 7.300710000000000255e-01 9.069690000000000252e-01 -1.384779999999999900e-01 -5.535830000000000473e-01 -3.290640000000000231e-01 -9.911039999999999850e-01 -2.149600000000000122e-01 1.029290000000000066e-01 -1.118169999999999997e-01 -6.036799999999999805e-02 1.696249999999999980e-01 -9.013330000000000508e-01 -4.135099999999999887e-02 5.175790000000000113e-01 1.260831000000000035e+00 -3.715100000000000346e-02 -1.104543999999999970e+00 -3.652290000000000258e-01
3.998840000000000172e-01 5.092659999999999965e-01 2.670047999999999977e+00 1.838700000000000057e-01 -5.374740000000000073e-01 5.602740000000000498e-01 1.424666999999999906e+00 1.010556000000000010e+00 1.627407999999999966e+00 8.274299999999999988e-01 6.390719999999999734e-01 1.091417999999999999e+00 3.324690000000000145e-01 4.312099999999999961e-02 1.274223000000000106e+00 -2.944689999999999808e-01 1.028810000000000002e-01 5.215440000000000076e-01 -8.066659999999999942e-01 6.332830000000000403e-01 -8.186269999999999936e-01 -8.068560000000000176e-01 -6.833740000000000370e-01 2.366260000000000030e-01 6.747109999999999497e-01 -2.924559999999999937e-01 8.663530000000000397e-01 1.165658000000000083e+00 1.279180999999999901e+00 -9.110719999999999930e-01 -9.577999999999999708e-03 -2.441989999999999994e-01 -1.167297999999999947e+00 -3.573180000000000245e-01 -1.164924000000000071e+00 2.603600000000000012e-02 -3.481020000000000225e-01 -2.286120000000000096e-01 -3.151229999999999865e-01 -2.692609999999999726e-01 2.500040000000000040e-01 -7.469350000000000156e-01 -1.163189000000000028e+00 -8.249689999999999523e-01 -6.706260000000000554e-01 -1.484942999999999902e+00 -7.720890000000000253e-01 -5.903289999999999926e-01 -2.102219999999999922e-01 6.967800000000000382e-02 7.724990000000000467e-01 1.204729999999999968e-01 6.590150000000000174e-01 -6.765879999999999672e-01 -2.389259999999999995e-01 -5.040970000000000173e-01 -1.019810000000000022e-01 1.021790000000000059e-01 -2.333389999999999909e-01 6.229350000000000165e-01 5.426959999999999562e-01 8.434570000000000123e-01 6.588000000000000106e-03 1.144981000000000027e+00 -7.891399999999999526e-01 -4.896519999999999762e-01 1.373213999999999935e+00 3.273209999999999731e-01 -1.553852999999999929e+00 -7.603440000000000198e-01 3.317030000000000256e-01 -2.133915000000000006e+00 -8.139499999999999513e-02 2.269770000000000121e-01 9.672190000000000509e-01 1.819070000000000131e-01 6.357789999999999830e-01 -4.551000000000000358e-03 -2.789349999999999885e-01 4.654209999999999736e-01 -2.964640000000000053e-01 2.964100000000000068e-02 -4.085489999999999955e-01 -2.253756000000000093e+00 -7.913860000000000339e-01 -6.798180000000000334e-01 3.370420000000000083e-01 -6.021900000000000031e-01 -6.636760000000000437e-01 1.150559000000000109e+00
3.819239999999999857e-01 7.632919999999999705e-01 -4.126099999999999907e-02 5.677929999999999922e-01 -8.865429999999999700e-01 -3.543140000000000178e-01 8.809000000000000163e-02 -3.923749999999999738e-01 -4.359149999999999969e-01 -1.628149999999999875e-01 1.690329999999999888e-01 2.069199999999999859e-02 -9.575949999999999740e-01 4.417139999999999955e-01 -4.704380000000000228e-01 -3.270939999999999959e-01 5.324780000000000069e-01 1.913249999999999951e-01 -2.612899999999999945e-02 1.066180000000000044e-01 -1.489099999999999972e-02 -7.163000000000000096e-03 -1.958800000000000124e-02 -1.669140000000000068e-01 -5.716999999999999860e-03 2.828749999999999876e-01 2.161869999999999903e-01 -4.867400000000000199e-02 -2.681300000000000003e-02 -1.751010000000000066e-01 7.677299999999999403e-02 3.281149999999999900e-01 -3.008589999999999876e-01 -2.366400000000000101e-02 -5.064950000000000285e-01 -4.760739999999999972e-01 -1.412700000000000067e-01 -1.507040000000000046e-01 -2.381250000000000033e-01 -4.695139999999999869e-01 -1.089920000000000055e-01 5.391319999999999446e-01 -2.414699999999999902e-01 3.322700000000000098e-01 1.953380000000000116e-01 3.384400000000000186e-01 -2.414830000000000032e-01 -2.252699999999999980e-01 -2.871020000000000238e-01 -7.235000000000000112e-03 1.552010000000000056e-01 -1.158000000000000002e-01 1.358479999999999965e-01 6.275349999999999540e-01 8.964820000000000011e-01 1.406149999999999900e-01 2.591030000000000277e-01 2.737859999999999738e-01 -9.499210000000000154e-01 -2.612599999999999992e-02 -1.839999999999999969e-02 -1.858309999999999962e-01 -5.203900000000000192e-02 -1.743799999999999864e-02 -4.493899999999999978e-02 -1.422299999999999953e-01 -9.337800000000000267e-02 5.922610000000000374e-01 5.037909999999999888e-01 8.973899999999999932e-02 -5.022349999999999870e-01 -1.938419999999999865e-01 -3.855160000000000253e-01 -6.243980000000000086e-01 1.839500000000000163e-02 4.675239999999999951e-01 -4.665899999999999909e-02 5.447720000000000340e-01 5.548299999999999760e-02 2.700179999999999803e-01 7.787999999999999784e-03 -2.085400000000000101e-02 1.375309999999999866e-01 4.868800000000000211e-02 5.949000000000000295e-03 9.694899999999999352e-02 1.407720000000000082e-01 1.076089999999999963e-01 3.645920000000000272e-01 -1.553209999999999869e-01
-6.815799999999999637e-01 -3.549760000000000137e-01 3.587449999999999806e-01 2.500040000000000040e-01 4.475000000000000089e-01 3.253860000000000086e-01 -4.314540000000000042e-01 -1.633699999999999875e-01 1.014850000000000058e-01 -1.539089999999999903e-01 -1.323169999999999902e-01 1.034170999999999951e+00 1.946231999999999962e+00 1.671397999999999939e+00 -4.680940000000000101e-01 3.275810000000000111e-01 -4.785630000000000162e-01 -3.069660000000000166e-01 3.516389999999999794e-01 -7.718610000000000193e-01 1.824979999999999936e-01 -3.413610000000000255e-01 -2.828660000000000063e-01 7.455260000000000220e-01 -4.661640000000000228e-01 7.319719999999999560e-01 7.322269999999999612e-01 -5.758900000000000130e-02 5.029200000000000337e-02 -3.832760000000000056e-01 -4.896989999999999954e-01 7.138229999999999853e-01 5.254689999999999639e-01 1.410099999999999965e-01 1.127490000000000020e-01 1.048459999999999948e-01 2.027809999999999890e-01 5.884600000000000247e-02 -2.236070000000000002e-01 -7.159600000000000686e-02 2.672129999999999783e-01 5.472989999999999799e-01 4.817750000000000088e-01 2.568500000000000227e-01 -6.381750000000000478e-01 4.656560000000000143e-01 4.789849999999999941e-01 -2.407769999999999910e-01 5.152360000000000273e-01 -2.317049999999999943e-01 -2.646599999999999994e-02 -3.050619999999999998e-01 -1.075669999999999960e-01 -6.017820000000000391e-01 -1.908689000000000080e+00 -8.013789999999999525e-01 -2.815000000000000141e-02 -2.673320000000000141e-01 -1.837620000000000087e-01 4.345660000000000078e-01 -3.749750000000000028e-01 -5.591399999999999842e-02 1.763879999999999892e-01 2.278689999999999882e-01 8.407780000000000253e-01 -1.029898999999999898e+00 1.636900000000000022e-01 -1.018124000000000029e+00 1.847850000000000048e-01 -4.877619999999999734e-01 6.205810000000000493e-01 -4.531649999999999845e-01 1.111530000000000018e-01 -5.376560000000000228e-01 -8.130279999999999729e-01 -4.473809999999999731e-01 -8.643650000000000500e-01 3.033699999999999730e-01 4.389939999999999953e-01 -6.753810000000000091e-01 -7.185150000000000148e-01 2.015339999999999909e-01 -6.232399999999999746e-02 1.659049999999999969e-01 1.413870000000000127e-01 2.286439999999999861e-01 -1.854099999999999845e-02 5.180129999999999457e-01 2.424969999999999903e-01 2.777599999999999861e-02
-1.184682000000000013e+00 -2.776750000000000052e-01 -2.759559999999999791e-01 -6.828819999999999890e-01 2.046699999999999908e-02 5.439199999999999591e-01 -6.013889999999999514e-01 -1.231700000000000017e-01 8.753849999999999687e-01 -2.923330000000000095e-01 4.518809999999999771e-01 2.310929999999999929e-01 4.245689999999999742e-01 -2.794769999999999754e-01 -4.253870000000000151e-01 -3.355130000000000057e-01 -3.836189999999999878e-01 1.785049999999999970e-01 4.678999999999999999e-03 -8.948540000000000383e-01 1.746590000000000087e-01 -1.847699999999999898e-01 6.120640000000000525e-01 3.901600000000000207e-02 6.091480000000000228e-01 5.222759999999999625e-01 6.001370000000000315e-01 2.919010000000000216e-01 -2.678300000000000125e-01 -2.536300000000000221e-01 2.718160000000000021e-01 1.446890000000000120e-01 6.156939999999999635e-01 2.288590000000000069e-01 1.875280000000000002e-01 4.064429999999999987e-01 1.646414000000000044e+00 5.924930000000000474e-01 5.406180000000000430e-01 4.672709999999999919e-01 -1.117530000000000051e-01 -6.460540000000000171e-01 2.109999999999999896e-03 2.291539999999999966e-01 -3.381469999999999754e-01 7.730069999999999997e-01 -5.285379999999999523e-01 -9.321430000000000549e-01 -4.530300000000000299e-02 -6.697119999999999740e-01 2.962319999999999953e-01 -2.517900000000000138e-01 -2.509930000000000216e-01 5.104060000000000263e-01 -2.739670000000000161e-01 -1.509020000000000084e-01 5.459960000000000369e-01 1.651839999999999975e-01 1.615179999999999949e-01 -7.815299999999999470e-01 1.445649999999999991e-01 -2.133609999999999951e-01 4.320700000000000235e-02 -1.065999999999999934e-02 7.282009999999999872e-01 1.178420000000000023e-01 7.988800000000000068e-02 6.762369999999999770e-01 -5.207900000000000029e-02 9.753100000000000658e-02 -6.437000000000000013e-03 4.564579999999999749e-01 1.685840000000000116e-01 -3.805239999999999734e-01 -8.951869999999999550e-01 -2.334050000000000014e-01 1.329450000000000076e-01 -4.198029999999999817e-01 -4.219240000000000212e-01 -5.511650000000000160e-01 -2.646930000000000116e-01 -2.600540000000000074e-01 8.323570000000000135e-01 -2.279740000000000100e-01 2.744100000000000011e-02 -5.348009999999999708e-01 -4.312619999999999787e-01 -6.242959999999999621e-01 3.330020000000000202e-01 -2.317639999999999978e-01
5.355459999999999665e-01 3.641119999999999912e-01 -9.558999999999999442e-02 2.972190000000000110e-01 -2.965260000000000118e-01 -9.092550000000000354e-01 1.147985999999999951e+00 1.688736999999999933e+00 6.848990000000000355e-01 -3.396719999999999740e-01 -5.493170000000000552e-01 -4.035099999999999798e-02 -2.633360000000000145e-01 8.559100000000000041e-02 7.280809999999999782e-01 -5.256999999999999867e-02 -2.267450000000000021e-01 7.365040000000000475e-01 5.240519999999999623e-01 -4.328549999999999898e-01 2.818289999999999962e-01 -5.140479999999999494e-01 2.329350000000000032e-01 3.918329999999999869e-01 -1.651890000000000025e-01 -3.446830000000000171e-01 -4.554460000000000175e-01 5.711659999999999515e-01 4.788430000000000186e-01 -3.102880000000000082e-01 9.592199999999999338e-02 -3.975009999999999932e-01 3.399329999999999852e-01 -5.201050000000000395e-01 3.468080000000000052e-01 -1.637731999999999966e+00 -7.711599999999999566e-01 -4.579650000000000110e-01 6.342069999999999652e-01 1.060650000000000065e-01 -1.569629999999999914e-01 -9.082500000000000295e-02 4.530370000000000230e-01 -2.786859999999999893e-01 5.020719999999999628e-01 -1.356735999999999942e+00 -8.359569999999999501e-01 -1.553219999999999879e-01 -7.470999999999999863e-02 1.946050000000000002e-01 5.820399999999999879e-02 -2.380909999999999971e-01 1.670530000000000070e-01 -1.605219999999999980e-01 -4.647699999999999748e-02 6.277939999999999632e-01 -4.665599999999999747e-01 -2.112789999999999946e-01 -6.733010000000000383e-01 3.080300000000000052e-02 -6.199789999999999468e-01 -5.615580000000000016e-01 -2.396909999999999874e-01 6.878710000000000102e-01 9.191369999999999818e-01 1.135430000000000050e-01 2.292869999999999908e-01 1.108709999999999973e-01 -6.680350000000000454e-01 3.955949999999999744e-01 1.247199999999999975e-01 -1.154638999999999971e+00 -3.244859999999999967e-01 3.630220000000000113e-01 -4.098399999999999821e-01 1.572079999999999866e-01 -7.138750000000000373e-01 8.079779999999999740e-01 1.001750000000000002e-01 -9.679899999999999616e-02 3.351540000000000075e-01 1.936049999999999993e-01 3.749469999999999748e-01 1.006159999999999943e+00 -3.836400000000000227e-02 -3.151649999999999729e-01 2.398689999999999989e-01 4.146600000000000286e-02 2.587209999999999788e-01 -9.697400000000000464e-02
3.821129999999999804e-01 6.119900000000000340e-01 6.294490000000000363e-01 2.804249999999999798e-01 1.717970000000000053e-01 2.082739999999999869e-01 -7.085199999999999831e-02 -6.128599999999999604e-01 1.034800000000000025e-01 -1.263579999999999981e-01 5.931640000000000246e-01 -6.267989999999999950e-01 -4.363319999999999976e-01 5.144830000000000236e-01 -1.222134000000000054e+00 2.752319999999999767e-01 -1.929279999999999884e-01 -2.316650000000000098e-01 1.604379999999999973e-01 5.444449999999999568e-01 6.462600000000000289e-02 2.738289999999999891e-01 -1.079993999999999899e+00 1.944720000000000060e-01 -4.876409999999999911e-01 2.404370000000000118e-01 5.283999999999999635e-03 1.392680000000000029e-01 5.519209999999999949e-01 5.673890000000000322e-01 -8.938799999999999524e-02 1.584260000000000113e-01 6.294000000000000115e-03 -9.497999999999999499e-02 -7.263800000000000257e-01 1.103826999999999892e+00 4.607100000000000084e-02 -2.110849999999999949e-01 -5.139550000000000507e-01 1.956080000000000041e-01 2.908419999999999894e-01 1.364039999999999975e-01 -2.905200000000000143e-02 4.316780000000000062e-01 -2.508029999999999982e-01 3.685209999999999875e-01 -2.769409999999999927e-01 5.472660000000000302e-01 -6.262739999999999974e-01 -4.976760000000000073e-01 -5.963810000000000500e-01 -4.470160000000000244e-01 -4.353029999999999955e-01 -2.333280000000000076e-01 2.327359999999999984e-01 1.007090999999999958e+00 3.822249999999999814e-01 -3.760240000000000249e-01 -1.141402999999999945e+00 4.687649999999999872e-01 -2.898809999999999998e-01 -5.459499999999999770e-02 -2.352839999999999931e-01 1.759580000000000033e-01 5.581690000000000262e-01 3.979200000000000098e-02 1.128389999999999949e-01 -2.033870000000000122e-01 5.543420000000000014e-01 9.620000000000000079e-03 -9.313000000000000445e-02 1.472140000000000115e-01 2.948790000000000022e-01 1.024666999999999994e+00 -2.305860000000000132e-01 7.929000000000000284e-03 -1.240134000000000070e+00 1.776439999999999964e-01 4.739110000000000267e-01 1.382940000000000003e-01 -1.291680000000000050e-01 -6.626700000000000645e-02 1.911909999999999998e-01 -5.605999999999999872e-03 -8.593319999999999848e-01 1.031210000000000043e-01 -1.410199999999999898e+00 5.700220000000000287e-01 -3.658989999999999743e-01 3.491630000000000011e-01
2.027100000000000082e-02 7.156050000000000466e-01 9.494770000000000154e-01 -1.864709999999999979e-01 1.300899999999999973e-02 1.649289999999999923e-01 1.759060000000000068e-01 -5.916639999999999677e-01 -7.720529999999999893e-01 1.044169999999999959e-01 5.329810000000000381e-01 -2.925909999999999900e-01 -2.037259999999999904e-01 7.236569999999999947e-01 1.834550000000000070e-01 5.808429999999999982e-01 -1.169840999999999909e+00 -5.796229999999999993e-01 1.999299999999999966e-01 1.066710000000000019e-01 -7.791780000000000372e-01 8.427040000000000086e-01 2.761370000000000213e-01 1.500769999999999882e-01 1.131439999999999946e-01 7.240180000000000504e-01 -5.046099999999999891e-02 9.759039999999999937e-01 5.508319999999999883e-01 -2.262379999999999947e-01 -7.235700000000000465e-02 1.097300000000000011e-02 1.767769999999999897e-01 2.442999999999999859e-03 -8.314540000000000264e-01 -4.976579999999999893e-01 -5.350699999999999901e-02 4.862520000000000175e-01 -4.305620000000000003e-01 5.973400000000000237e-02 -7.388160000000000283e-01 1.484379999999999866e-01 3.298090000000000188e-01 6.490000000000000109e-03 2.577010000000000134e-01 -4.200110000000000232e-01 -1.530320000000000014e-01 3.580699999999999994e-01 1.519739999999999980e-01 9.321400000000000519e-02 -7.542600000000000693e-02 -2.407400000000000095e-01 -5.581279999999999575e-01 1.013089999999999963e-01 -5.340650000000000119e-01 3.949690000000000145e-01 1.510130000000000083e-01 -1.398119999999999918e-01 3.006829999999999781e-01 -9.750599999999999545e-02 1.829500000000000015e-01 1.656900000000000039e-02 4.184300000000000241e-01 -1.150622000000000034e+00 -3.279839999999999978e-01 5.028099999999999792e-01 -9.079700000000000271e-02 2.088419999999999999e-01 -2.331100000000000116e-01 1.931180000000000119e-01 -2.759369999999999878e-01 7.792580000000000062e-01 -1.239098000000000033e+00 -4.103089999999999793e-01 1.297810000000000075e-01 2.372519999999999907e-01 -7.040210000000000079e-01 -1.866720000000000046e-01 3.306009999999999782e-01 -1.562810000000000032e-01 -6.233049999999999979e-01 2.617600000000000135e-02 9.789550000000000196e-01 9.485799999999999788e-02 -3.085220000000000184e-01 -4.169840000000000213e-01 1.619990000000000041e-01 1.125519999999999993e-01 1.945949999999999902e-01 1.159990000000000049e-01
7.984419999999999851e-01 1.460319999999999951e-01 -2.012299999999999922e-01 2.298920000000000130e-01 -7.698460000000000303e-01 3.359999999999999814e-04 -7.498100000000000598e-02 -3.419030000000000125e-01 -3.614160000000000150e-01 -2.571330000000000005e-01 1.481659999999999922e-01 2.116220000000000045e-01 -9.968029999999999946e-01 1.039780000000000010e-01 -2.646009999999999751e-01 -2.038069999999999882e-01 9.551680000000000170e-01 -1.833569999999999922e-01 -1.186450000000000005e-01 2.895100000000000104e-02 2.414769999999999972e-01 2.190800000000000039e-02 -1.851019999999999888e-01 -1.509330000000000116e-01 1.688719999999999943e-01 3.063139999999999752e-01 2.833289999999999975e-01 3.448400000000000076e-02 2.577999999999999996e-03 2.426100000000000131e-02 1.004430000000000045e-01 2.484889999999999877e-01 1.587000000000000086e-03 -2.150699999999999834e-02 -8.392830000000000013e-01 -2.555800000000000086e-02 -5.570439999999999836e-01 3.296220000000000261e-01 1.529610000000000136e-01 -2.470030000000000003e-01 2.521100000000000077e-02 3.458879999999999733e-01 -9.271500000000000574e-02 2.330039999999999889e-01 -2.563800000000000107e-02 4.855349999999999944e-01 -1.479419999999999902e-01 -3.379360000000000142e-01 -2.860039999999999805e-01 4.220999999999999926e-03 3.522299999999999737e-02 -4.356199999999999656e-02 8.976800000000000057e-02 3.366190000000000015e-01 1.035636000000000001e+00 -5.624620000000000175e-01 8.021500000000000297e-01 1.143129999999999979e-01 -2.725420000000000065e-01 -1.213970000000000049e-01 6.590999999999999637e-02 -5.561900000000000177e-02 -1.560429999999999873e-01 -3.592499999999999860e-02 5.863399999999999862e-02 -2.526849999999999929e-01 -1.786669999999999925e-01 3.711780000000000079e-01 4.843509999999999760e-01 9.340500000000000191e-02 -3.538780000000000259e-01 -3.908820000000000072e-01 -4.004579999999999806e-01 -5.285320000000000018e-01 9.072099999999999609e-02 3.293869999999999854e-01 -1.415399999999999991e-01 4.503759999999999986e-01 7.745199999999999307e-02 6.665919999999999623e-01 -3.941509999999999736e-01 -4.304600000000000093e-02 8.030700000000000338e-02 -2.805170000000000163e-01 -7.903499999999999415e-02 -2.735800000000000037e-02 1.294659999999999977e-01 8.065700000000000647e-02 4.277949999999999808e-01 -4.440209999999999990e-01
2.441521999999999970e+00 -1.802821000000000007e+00 -5.216300000000000381e-01 5.821330000000000116e-01 -2.270079999999999876e-01 6.073680000000000190e-01 -3.045939999999999759e-01 7.275209999999999733e-01 -8.944069999999999521e-01 5.805500000000000244e-02 -3.089709999999999956e-01 -1.021555999999999909e+00 2.169560000000000100e-01 3.935960000000000014e-01 -1.301228999999999969e+00 -7.659139999999999837e-01 9.317999999999999894e-03 3.388399999999999745e-01 -1.367700000000000027e-01 1.782819999999999960e-01 5.352300000000000113e-02 -3.369570000000000065e-01 1.124259999999999982e-01 -1.892639999999999878e-01 -5.349799999999999695e-02 6.548650000000000304e-01 -2.933350000000000124e-01 1.751700000000000132e-02 3.324599999999999778e-02 -6.513599999999999945e-02 -6.238799999999999901e-01 -2.422920000000000074e-01 2.144810000000000050e-01 -6.129780000000000229e-01 1.514969999999999928e-01 3.036179999999999990e-01 -1.758351999999999915e+00 1.309249000000000107e+00 1.552051999999999987e+00 -7.742320000000000313e-01 5.241069999999999895e-01 -2.758099999999999996e-01 -1.136039999999999967e-01 2.781440000000000023e-01 3.709629999999999872e-01 4.581099999999999756e-02 -4.250639999999999974e-01 1.351269999999999971e-01 -1.282939999999999914e-01 2.769110000000000182e-01 -1.166215999999999919e+00 -1.899659999999999960e-01 3.015240000000000142e-01 -5.848680000000000545e-01 -2.492449999999999943e-01 -5.448169999999999957e-01 1.031859999999999999e-01 1.572620000000000129e-01 1.263995999999999897e+00 -3.690649999999999764e-01 -4.249499999999999805e-02 -4.877330000000000276e-01 3.650499999999999856e-01 3.884739999999999860e-01 -2.554130000000000011e-01 7.247409999999999686e-01 2.995800000000000129e-01 -1.443639999999999923e-01 8.296639999999999571e-01 7.303730000000000500e-01 -8.622410000000000352e-01 6.257890000000000397e-01 8.637190000000000145e-01 -1.450412999999999952e+00 3.366629999999999900e-01 -7.726020000000000110e-01 1.020175000000000054e+00 -1.565159999999999885e-01 4.201349999999999807e-01 -1.025859999999999966e-01 1.534320000000000128e-01 5.927189999999999959e-01 -8.774600000000000455e-02 -2.341870000000000063e-01 -3.494099999999999984e-02 -6.655099999999999905e-02 2.190529999999999977e-01 8.406700000000000284e-02 -2.268400000000000138e-01 1.396699999999999886e-01