7.047799999999999621e-01 2.052810000000000024e+00 4.383759999999999657e+00 4.524160000000000181e+00 0.000000000000000000e+00 4.469389999999999752e+00 1.177033999999999914e+01 0.000000000000000000e+00 4.373000000000000220e+00 8.156840000000000757e+00 2.052810000000000024e+00 4.499749999999999694e+00 1.909200999999999837e+01 0.000000000000000000e+00 3.921359999999999957e+00 2.585920000000000130e+01 0.000000000000000000e+00 3.944819999999999993e+00 2.249867000000000061e+01 2.052810000000000024e+00 3.843840000000000146e+00 1.541142999999999930e+01 2.052810000000000024e+00 4.113360000000000127e+00 2.554310000000000080e+00 4.105620000000000047e+00 8.615059999999999718e+00 5.942960000000000242e+00 2.052810000000000024e+00 8.739589999999999748e+00 9.418189999999999173e+00 4.105620000000000047e+00 8.729720000000000368e+00 1.292076999999999920e+01 2.052810000000000024e+00 8.557969999999999189e+00 1.635735999999999990e+01 4.105620000000000047e+00 8.429029999999999134e+00 2.008227000000000118e+01 2.052810000000000024e+00 8.242710000000000647e+00 2.380753999999999948e+01 4.105620000000000047e+00 8.116009999999999280e+00 2.769275000000000020e+01 2.052810000000000024e+00 8.161139999999999617e+00 3.408409999999999940e+00 2.052810000000000024e+00 3.279399999999999871e+00 7.001789999999999736e+00 0.000000000000000000e+00 3.294230000000000214e+00 1.054480000000000040e+01 2.052810000000000024e+00 3.216320000000000068e+00 2.126998999999999995e+01 0.000000000000000000e+00 2.468440000000000190e+00 2.481765000000000043e+01 2.052810000000000024e+00 2.473230000000000040e+00 1.408624999999999972e+01 0.000000000000000000e+00 3.046570000000000000e+00 1.764442999999999984e+01 2.052810000000000024e+00 2.763469999999999871e+00 0.000000000000000000e+00 0.000000000000000000e+00 2.873930000000000096e+00 1.692299999999999915e+00 2.052810000000000024e+00 6.838540000000000063e+00 4.936930000000000263e+00 0.000000000000000000e+00 7.037239999999999718e+00 1.184806000000000026e+01 0.000000000000000000e+00 6.939020000000000188e+00 8.360350000000000392e+00 2.052810000000000024e+00 7.058089999999999975e+00 1.988843999999999923e+01 2.052810000000000024e+00 5.638670000000000293e+00 2.664761999999999986e+01 2.052810000000000024e+00 5.704780000000000406e+00 2.339346000000000103e+01 4.105620000000000047e+00 5.527669999999999639e+00 1.544824000000000019e+01 2.052810000000000024e+00 6.712530000000000108e+00 3.555089999999999861e+00 2.052810000000000024e+00 1.007164999999999999e+01 7.107639999999999958e+00 0.000000000000000000e+00 1.010341000000000022e+01 1.067708000000000013e+01 2.052810000000000024e+00 1.001781000000000077e+01 2.135960999999999999e+01 0.000000000000000000e+00 9.306330000000000879e+00 2.495141999999999882e+01 2.052810000000000024e+00 9.257419999999999760e+00 1.418223000000000056e+01 0.000000000000000000e+00 9.887460000000000804e+00 1.779307999999999979e+01 2.052810000000000024e+00 9.540670000000000428e+00 2.837077000000000027e+01 0.000000000000000000e+00 9.672829999999999373e+00
7.193800000000000194e-01 2.053049999999999820e+00 4.376929999999999765e+00 4.544209999999999638e+00 1.643000000000000016e-02 4.453190000000000204e+00 1.180053999999999981e+01 9.485000000000000375e-02 4.291240000000000165e+00 8.180049999999999599e+00 2.095619999999999816e+00 4.470640000000000391e+00 1.911537999999999826e+01 4.068480000000000096e+00 3.867550000000000043e+00 2.586825999999999937e+01 4.085939999999999905e+00 3.948399999999999910e+00 2.250946000000000069e+01 2.016929999999999890e+00 3.839240000000000208e+00 1.543303000000000047e+01 2.172740000000000116e+00 4.040659999999999918e+00 2.575039999999999996e+00 2.372000000000000150e-02 8.603690000000000282e+00 5.958160000000000345e+00 2.112089999999999801e+00 8.724660000000000082e+00 9.424419999999999575e+00 1.141500000000000015e-01 8.703920000000000101e+00 1.293088000000000015e+01 2.222850000000000215e+00 8.447309999999999874e+00 1.637979999999999947e+01 2.639999999999999986e-03 8.417889999999999873e+00 2.013391999999999982e+01 1.940320000000000045e+00 8.198570000000000135e+00 2.384810999999999837e+01 4.034340000000000259e+00 8.106350000000000833e+00 2.771882000000000090e+01 2.049809999999999910e+00 8.156380000000000408e+00 3.418839999999999879e+00 2.070019999999999971e+00 3.269280000000000186e+00 7.014170000000000016e+00 4.383999999999999703e-02 3.271009999999999973e+00 1.055097999999999914e+01 2.145659999999999901e+00 3.156060000000000088e+00 2.130685000000000073e+01 4.069410000000000416e+00 2.442369999999999930e+00 2.483176999999999879e+01 2.027670000000000083e+00 2.475119999999999987e+00 1.411087000000000025e+01 1.238599999999999979e-01 2.956189999999999873e+00 1.767511000000000010e+01 2.042349999999999888e+00 2.709509999999999863e+00 0.000000000000000000e+00 0.000000000000000000e+00 2.873930000000000096e+00 1.709750000000000103e+00 2.072259999999999991e+00 6.828850000000000087e+00 4.947770000000000223e+00 4.495999999999999996e-02 7.023320000000000007e+00 1.181995000000000040e+01 1.691799999999999971e-01 6.858640000000000292e+00 8.356619999999999493e+00 2.146240000000000148e+00 7.031869999999999621e+00 1.989258999999999844e+01 1.989149999999999974e+00 5.598770000000000024e+00 2.666031999999999869e+01 2.036639999999999784e+00 5.706780000000000186e+00 2.340276000000000067e+01 4.064639999999999809e+00 5.525240000000000151e+00 1.538813000000000031e+01 2.352189999999999781e+00 6.622040000000000148e+00 3.575039999999999996e+00 2.082450000000000134e+00 1.006157999999999930e+01 7.125980000000000203e+00 6.789000000000000590e-02 1.008868000000000009e+01 1.071401999999999965e+01 2.170290000000000052e+00 9.958009999999999806e+00 2.138906000000000063e+01 3.996640000000000192e+00 9.284039999999999182e+00 2.497710000000000008e+01 1.984890000000000043e+00 9.259370000000000545e+00 1.417826999999999948e+01 1.468800000000000106e-01 9.810290000000000177e+00 1.782936000000000121e+01 1.971330000000000027e+00 9.481070000000000775e+00 2.839496000000000109e+01 4.104169999999999874e+00 9.668699999999999406e+00
6.829199999999999715e-01 2.052810000000000024e+00 4.387809999999999988e+00 4.537239999999999718e+00 0.000000000000000000e+00 4.461879999999999846e+00 1.187667000000000073e+01 0.000000000000000000e+00 4.192829999999999835e+00 8.209569999999999368e+00 2.052810000000000024e+00 4.463899999999999757e+00 1.900798999999999950e+01 0.000000000000000000e+00 3.856329999999999814e+00 2.583487999999999829e+01 0.000000000000000000e+00 3.933100000000000041e+00 2.246587999999999852e+01 2.052810000000000024e+00 3.795049999999999812e+00 1.557968999999999937e+01 2.052810000000000024e+00 4.068430000000000213e+00 2.535559999999999814e+00 4.105620000000000047e+00 8.610659999999999314e+00 5.910020000000000273e+00 2.052810000000000024e+00 8.736890000000000711e+00 9.366920000000000357e+00 4.105620000000000047e+00 8.698119999999999408e+00 1.280418000000000056e+01 2.052810000000000024e+00 8.485269999999999868e+00 1.650675000000000026e+01 4.105620000000000047e+00 8.362610000000000099e+00 2.017145999999999972e+01 2.052810000000000024e+00 8.081369999999999720e+00 2.384115999999999858e+01 4.105620000000000047e+00 8.069779999999999731e+00 2.768519999999999825e+01 2.052810000000000024e+00 8.159190000000000609e+00 3.422109999999999985e+00 2.052810000000000024e+00 3.283609999999999918e+00 7.023679999999999701e+00 0.000000000000000000e+00 3.298360000000000181e+00 1.055554000000000059e+01 2.052810000000000024e+00 3.148550000000000182e+00 2.126839000000000013e+01 0.000000000000000000e+00 2.438299999999999912e+00 2.482781999999999911e+01 2.052810000000000024e+00 2.461980000000000057e+00 1.414672999999999981e+01 0.000000000000000000e+00 2.905250000000000110e+00 1.771769000000000105e+01 2.052810000000000024e+00 2.552270000000000039e+00 0.000000000000000000e+00 0.000000000000000000e+00 2.873930000000000096e+00 1.707489999999999952e+00 2.052810000000000024e+00 6.839080000000000048e+00 4.952040000000000219e+00 0.000000000000000000e+00 7.036940000000000417e+00 1.193627000000000038e+01 0.000000000000000000e+00 6.794990000000000308e+00 8.382170000000000343e+00 2.052810000000000024e+00 7.037729999999999819e+00 1.999727999999999994e+01 2.052810000000000024e+00 5.509299999999999642e+00 2.666113000000000000e+01 2.052810000000000024e+00 5.706780000000000186e+00 2.341847999999999885e+01 4.105620000000000047e+00 5.498140000000000249e+00 1.644585000000000008e+01 4.105620000000000047e+00 5.759599999999999831e+00 3.548119999999999941e+00 2.052810000000000024e+00 1.007633000000000045e+01 7.100220000000000198e+00 0.000000000000000000e+00 1.010293000000000063e+01 1.066156999999999933e+01 2.052810000000000024e+00 9.996700000000000585e+00 2.135885000000000034e+01 0.000000000000000000e+00 9.243690000000000850e+00 2.494949000000000083e+01 2.052810000000000024e+00 9.254709999999999326e+00 1.423601999999999990e+01 0.000000000000000000e+00 9.648350000000000648e+00 1.782939999999999969e+01 2.052810000000000024e+00 9.404049999999999798e+00 2.837115000000000009e+01 0.000000000000000000e+00 9.672670000000000101e+00
1.077730000000000077e+00 2.053990000000000204e+00 4.112180000000000391e+00 4.712589999999999613e+00 1.176999999999999921e-02 4.252460000000000129e+00 1.196892000000000067e+01 4.100240000000000329e+00 3.959039999999999893e+00 8.329919999999999547e+00 2.057700000000000085e+00 4.222520000000000273e+00 1.904378000000000171e+01 4.103130000000000166e+00 3.561160000000000103e+00 2.571825000000000117e+01 2.397000000000000172e-02 3.937260000000000204e+00 2.240444000000000102e+01 2.048970000000000180e+00 3.558120000000000172e+00 1.564179000000000030e+01 2.040989999999999860e+00 3.796759999999999913e+00 2.504980000000000206e+00 1.288300000000000001e-01 8.433579999999999188e+00 5.983069999999999666e+00 2.156239999999999934e+00 8.494579999999999131e+00 9.482089999999999463e+00 9.536999999999999644e-02 8.441850000000000520e+00 1.293354000000000070e+01 2.162040000000000184e+00 8.246389999999999887e+00 1.667060000000000031e+01 1.105300000000000032e-01 8.089050000000000296e+00 2.039245999999999981e+01 2.179310000000000080e+00 7.803469999999999906e+00 2.428661999999999921e+01 1.434600000000000042e-01 7.721870000000000012e+00 2.757747000000000170e+01 2.213169999999999860e+00 8.190310000000000201e+00 3.594749999999999890e+00 2.065389999999999837e+00 3.013250000000000206e+00 7.133440000000000225e+00 7.060000000000000303e-03 3.038510000000000044e+00 1.064481999999999928e+01 2.049370000000000136e+00 2.898499999999999854e+00 2.131759999999999877e+01 4.102129999999999832e+00 2.117129999999999956e+00 2.497716000000000136e+01 2.076839999999999797e+00 2.437650000000000095e+00 1.420151000000000074e+01 4.077679999999999971e+00 2.626259999999999817e+00 1.775786000000000087e+01 2.042559999999999931e+00 2.247020000000000017e+00 0.000000000000000000e+00 0.000000000000000000e+00 2.873930000000000096e+00 1.525400000000000089e+00 2.161639999999999784e+00 6.675980000000000025e+00 4.932100000000000151e+00 8.555000000000000104e-02 6.810089999999999755e+00 1.200004000000000026e+01 7.463999999999999801e-02 6.558360000000000412e+00 8.427849999999999397e+00 2.126930000000000209e+00 6.789320000000000022e+00 1.996577999999999875e+01 2.078399999999999803e+00 5.221339999999999648e+00 2.671731000000000122e+01 1.642000000000000126e-01 6.388819999999999943e+00 2.322453000000000145e+01 1.329999999999999932e-02 5.285989999999999966e+00 1.646158000000000143e+01 2.021999999999999839e-02 5.486559999999999881e+00 3.637439999999999785e+00 2.175489999999999924e+00 9.817040000000000433e+00 7.200899999999999856e+00 1.000000000000000056e-01 9.833360000000000767e+00 1.076760999999999946e+01 2.149459999999999926e+00 9.738870000000000360e+00 2.157499999999999929e+01 1.264599999999999891e-01 8.897349999999999426e+00 2.495730000000000004e+01 2.197869999999999990e+00 9.235950000000000770e+00 1.437345999999999968e+01 1.200100000000000056e-01 9.370409999999999684e+00 1.799145000000000039e+01 2.163069999999999826e+00 9.097440000000000637e+00 8.587000000000000188e-02 1.496000000000000107e-01 9.681129999999999569e+00
1.044300000000000006e+00 2.058230000000000004e+00 4.136540000000000106e+00 4.699939999999999785e+00 7.130000000000000053e-03 4.273839999999999861e+00 1.197228999999999921e+01 4.084670000000000023e+00 3.993900000000000006e+00 8.325200000000000600e+00 2.052719999999999878e+00 4.241360000000000241e+00 1.905847999999999942e+01 4.046840000000000437e+00 3.544329999999999981e+00 2.569903000000000048e+01 5.369999999999999774e-03 3.825979999999999936e+00 2.243977999999999895e+01 1.951160000000000005e+00 3.462380000000000013e+00 1.564705999999999975e+01 2.005440000000000111e+00 3.821239999999999970e+00 2.546710000000000029e+00 1.934400000000000008e-01 8.435090000000000643e+00 6.009739999999999860e+00 2.181560000000000166e+00 8.526389999999999247e+00 9.509090000000000487e+00 1.106300000000000061e-01 8.446889999999999787e+00 1.295498000000000083e+01 2.192450000000000010e+00 8.289809999999999235e+00 1.670094999999999885e+01 1.572999999999999954e-01 8.100949999999999207e+00 2.042310000000000159e+01 2.294649999999999856e+00 7.758460000000000356e+00 2.431503999999999976e+01 3.849699999999999789e-01 7.649989999999999846e+00 2.761009999999999920e+01 2.332850000000000090e+00 8.219680000000000319e+00 3.575880000000000170e+00 2.060350000000000126e+00 3.042380000000000084e+00 7.123350000000000293e+00 1.779999999999999898e-03 3.062570000000000014e+00 1.064636999999999922e+01 2.034609999999999808e+00 2.931830000000000158e+00 2.129677999999999827e+01 4.025719999999999743e+00 2.056999999999999940e+00 2.497009999999999863e+01 2.053059999999999885e+00 2.296660000000000146e+00 1.419959000000000060e+01 4.038809999999999789e+00 2.655040000000000067e+00 1.774862999999999857e+01 1.983589999999999964e+00 2.253880000000000106e+00 0.000000000000000000e+00 0.000000000000000000e+00 2.873930000000000096e+00 1.537919999999999954e+00 2.252590000000000092e+00 6.684249999999999581e+00 4.955390000000000406e+00 1.131599999999999967e-01 6.830409999999999648e+00 1.201403999999999961e+01 8.860999999999999432e-02 6.594100000000000072e+00 8.436489999999999156e+00 2.139930000000000110e+00 6.807970000000000077e+00 1.999137999999999948e+01 2.050769999999999982e+00 5.195560000000000400e+00 2.655439000000000149e+01 8.285400000000000542e-01 6.211619999999999919e+00 2.326492999999999967e+01 4.001739999999999853e+00 5.206140000000000434e+00 1.646639000000000053e+01 1.969999999999999963e-03 5.507869999999999600e+00 3.656759999999999788e+00 2.227250000000000174e+00 9.834920000000000329e+00 7.229490000000000194e+00 1.232300000000000062e-01 9.854449999999999932e+00 1.077862999999999971e+01 2.168089999999999851e+00 9.763690000000000424e+00 2.162935999999999837e+01 2.469899999999999873e-01 8.837350000000000705e+00 2.499211999999999989e+01 2.454769999999999897e+00 9.196889999999999787e+00 1.440591000000000044e+01 1.630099999999999882e-01 9.397429999999999950e+00 1.803828999999999994e+01 2.215689999999999937e+00 9.093270000000000408e+00 1.171399999999999941e-01 2.389199999999999935e-01 9.673260000000000858e+00
1.037760000000000016e+00 2.055379999999999985e+00 4.135690000000000310e+00 4.698839999999999684e+00 1.479999999999999979e-03 4.272039999999999615e+00 1.197582000000000058e+01 4.079920000000000435e+00 3.998829999999999885e+00 8.327859999999999374e+00 2.049329999999999874e+00 4.246500000000000163e+00 1.907019999999999982e+01 4.041570000000000107e+00 3.554840000000000000e+00 2.573942999999999870e+01 3.971960000000000157e+00 3.896929999999999783e+00 2.248340999999999923e+01 1.923270000000000035e+00 3.445819999999999883e+00 1.565351000000000070e+01 1.999440000000000106e+00 3.823760000000000048e+00 2.577690000000000037e+00 1.458299999999999874e-01 8.408749999999999503e+00 6.016750000000000043e+00 2.172060000000000102e+00 8.538169999999999149e+00 9.513070000000000803e+00 1.072499999999999981e-01 8.449139999999999873e+00 1.295560000000000045e+01 2.191949999999999843e+00 8.297280000000000655e+00 1.670240000000000080e+01 1.640600000000000114e-01 8.103809999999999292e+00 2.042115000000000080e+01 2.316240000000000077e+00 7.759330000000000283e+00 2.428893000000000058e+01 5.163299999999999557e-01 7.624050000000000438e+00 2.762923999999999936e+01 2.168769999999999865e+00 8.212809999999999278e+00 3.578930000000000167e+00 2.054250000000000131e+00 3.041560000000000041e+00 7.125860000000000305e+00 4.103699999999999903e+00 3.068929999999999936e+00 1.064783000000000079e+01 2.029770000000000074e+00 2.937889999999999890e+00 2.131074999999999875e+01 3.997069999999999901e+00 2.070949999999999847e+00 2.498695999999999984e+01 1.956099999999999950e+00 2.310360000000000191e+00 1.420176999999999978e+01 4.031460000000000043e+00 2.659419999999999895e+00 1.775739000000000090e+01 1.975549999999999917e+00 2.260920000000000041e+00 0.000000000000000000e+00 0.000000000000000000e+00 2.873930000000000096e+00 1.581269999999999953e+00 2.193760000000000154e+00 6.675609999999999822e+00 4.976810000000000400e+00 9.865999999999999770e-02 6.831170000000000186e+00 1.201243999999999978e+01 8.512999999999999734e-02 6.600299999999999834e+00 8.437670000000000670e+00 2.135400000000000187e+00 6.814809999999999590e+00 1.999971999999999994e+01 2.054460000000000175e+00 5.201539999999999608e+00 2.630481999999999942e+01 1.590700000000000003e+00 5.964039999999999786e+00 2.327374000000000009e+01 4.004730000000000345e+00 5.220880000000000187e+00 1.646461000000000041e+01 6.000000000000000152e-05 5.513370000000000104e+00 3.651339999999999808e+00 2.190119999999999845e+00 9.835750000000000881e+00 7.231550000000000367e+00 1.151900000000000007e-01 9.864069999999999894e+00 1.077698000000000000e+01 2.165399999999999991e+00 9.770490000000000563e+00 2.163148999999999944e+01 2.751700000000000257e-01 8.840139999999999887e+00 2.499672999999999945e+01 2.584769999999999790e+00 9.178269999999999484e+00 1.440596999999999994e+01 1.643999999999999906e-01 9.402580000000000382e+00 1.803743000000000052e+01 2.224139999999999784e+00 9.099449999999999150e+00 1.104900000000000049e-01 1.220500000000000057e-01 9.628840000000000288e+00
6.829199999999999715e-01 2.052810000000000024e+00 4.387809999999999988e+00 4.537239999999999718e+00 0.000000000000000000e+00 4.461879999999999846e+00 1.187667000000000073e+01 0.000000000000000000e+00 4.192829999999999835e+00 8.209569999999999368e+00 2.052810000000000024e+00 4.463899999999999757e+00 1.900798999999999950e+01 0.000000000000000000e+00 3.856329999999999814e+00 2.583487999999999829e+01 0.000000000000000000e+00 3.933100000000000041e+00 2.246587999999999852e+01 2.052810000000000024e+00 3.795049999999999812e+00 1.557968999999999937e+01 2.052810000000000024e+00 4.068430000000000213e+00 2.535559999999999814e+00 4.105620000000000047e+00 8.610659999999999314e+00 5.910020000000000273e+00 2.052810000000000024e+00 8.736890000000000711e+00 9.366920000000000357e+00 4.105620000000000047e+00 8.698119999999999408e+00 1.280418000000000056e+01 2.052810000000000024e+00 8.485269999999999868e+00 1.650675000000000026e+01 4.105620000000000047e+00 8.362610000000000099e+00 2.017145999999999972e+01 2.052810000000000024e+00 8.081369999999999720e+00 2.384115999999999858e+01 4.105620000000000047e+00 8.069779999999999731e+00 2.768519999999999825e+01 2.052810000000000024e+00 8.159190000000000609e+00 3.422109999999999985e+00 2.052810000000000024e+00 3.283609999999999918e+00 7.023679999999999701e+00 0.000000000000000000e+00 3.298360000000000181e+00 1.055554000000000059e+01 2.052810000000000024e+00 3.148550000000000182e+00 2.126839000000000013e+01 0.000000000000000000e+00 2.438299999999999912e+00 2.482781999999999911e+01 2.052810000000000024e+00 2.461980000000000057e+00 1.414672999999999981e+01 0.000000000000000000e+00 2.905250000000000110e+00 1.771769000000000105e+01 2.052810000000000024e+00 2.552270000000000039e+00 0.000000000000000000e+00 0.000000000000000000e+00 2.873930000000000096e+00 1.707489999999999952e+00 2.052810000000000024e+00 6.839080000000000048e+00 4.952040000000000219e+00 0.000000000000000000e+00 7.036940000000000417e+00 1.193627000000000038e+01 0.000000000000000000e+00 6.794990000000000308e+00 8.382170000000000343e+00 2.052810000000000024e+00 7.037729999999999819e+00 1.999727999999999994e+01 2.052810000000000024e+00 5.509299999999999642e+00 2.666113000000000000e+01 2.052810000000000024e+00 5.706780000000000186e+00 2.341847999999999885e+01 4.105620000000000047e+00 5.498140000000000249e+00 1.644585000000000008e+01 4.105620000000000047e+00 5.759599999999999831e+00 3.548119999999999941e+00 2.052810000000000024e+00 1.007633000000000045e+01 7.100220000000000198e+00 0.000000000000000000e+00 1.010293000000000063e+01 1.066156999999999933e+01 2.052810000000000024e+00 9.996700000000000585e+00 2.135885000000000034e+01 0.000000000000000000e+00 9.243690000000000850e+00 2.494949000000000083e+01 2.052810000000000024e+00 9.254709999999999326e+00 1.423601999999999990e+01 0.000000000000000000e+00 9.648350000000000648e+00 1.782939999999999969e+01 2.052810000000000024e+00 9.404049999999999798e+00 2.837115000000000009e+01 0.000000000000000000e+00 9.672670000000000101e+00
7.237400000000000500e-01 2.053059999999999885e+00 4.375759999999999650e+00 4.547039999999999971e+00 1.659000000000000058e-02 4.453949999999999854e+00 1.182682999999999929e+01 8.995999999999999830e-02 4.265279999999999738e+00 8.186090000000000089e+00 2.095530000000000115e+00 4.472929999999999851e+00 1.909891999999999967e+01 4.020719999999999850e+00 3.862439999999999873e+00 2.587153999999999954e+01 4.082130000000000258e+00 3.950480000000000214e+00 2.250979999999999848e+01 2.005660000000000220e+00 3.839669999999999916e+00 1.546340000000000003e+01 2.020140000000000047e+00 4.112750000000000128e+00 2.579400000000000137e+00 2.316999999999999962e-02 8.605499999999999261e+00 5.960440000000000182e+00 2.115889999999999826e+00 8.725870000000000459e+00 9.422840000000000771e+00 1.258499999999999897e-01 8.704029999999999490e+00 1.291544000000000025e+01 2.298210000000000086e+00 8.419409999999999172e+00 1.645777000000000001e+01 3.739419999999999966e+00 8.594910000000000494e+00 2.017586000000000013e+01 1.898079999999999989e+00 8.182190000000000296e+00 2.386222000000000065e+01 4.012030000000000207e+00 8.105829999999999202e+00 2.772695999999999827e+01 2.046930000000000138e+00 8.155089999999999506e+00 3.416749999999999954e+00 2.070269999999999833e+00 3.272019999999999929e+00 7.012260000000000382e+00 4.435999999999999666e-02 3.277050000000000018e+00 1.054442000000000057e+01 2.142809999999999881e+00 3.160890000000000200e+00 2.130678999999999945e+01 4.050919999999999632e+00 2.454619999999999802e+00 2.483297999999999917e+01 2.021780000000000133e+00 2.479569999999999830e+00 1.411711000000000027e+01 5.177999999999999964e-02 2.931999999999999940e+00 1.768209999999999837e+01 1.972630000000000106e+00 2.714109999999999800e+00 0.000000000000000000e+00 0.000000000000000000e+00 2.873930000000000096e+00 1.710530000000000106e+00 2.072229999999999794e+00 6.829080000000000261e+00 4.943609999999999616e+00 4.780000000000000221e-02 7.026379999999999626e+00 1.176941000000000059e+01 2.363699999999999968e-01 6.853130000000000166e+00 8.342760000000000176e+00 2.159569999999999990e+00 7.037799999999999834e+00 1.986870000000000047e+01 1.959319999999999951e+00 5.607479999999999798e+00 2.665871999999999886e+01 2.034469999999999779e+00 5.709810000000000052e+00 2.339651999999999887e+01 4.054949999999999832e+00 5.531659999999999577e+00 1.521002999999999972e+01 3.321200000000000152e+00 6.345299999999999940e+00 3.576109999999999900e+00 2.082370000000000054e+00 1.006470999999999982e+01 7.128090000000000259e+00 7.201000000000000456e-02 1.009395999999999916e+01 1.072491999999999912e+01 2.180079999999999796e+00 9.961890000000000356e+00 2.139901000000000053e+01 3.953980000000000050e+00 9.296549999999999869e+00 2.497927999999999926e+01 1.963899999999999979e+00 9.266239999999999810e+00 1.419295999999999935e+01 1.998399999999999899e-01 9.786060000000000869e+00 1.788277000000000072e+01 1.705119999999999969e+00 9.527359999999999829e+00 2.839556999999999931e+01 4.101250000000000284e+00 9.669890000000000541e+00
7.461900000000000199e-01 2.051969999999999850e+00 4.324150000000000382e+00 4.617539999999999978e+00 2.190000000000000106e-03 4.290750000000000064e+00 1.195301000000000080e+01 4.078590000000000160e+00 3.993279999999999941e+00 8.288919999999999177e+00 2.049339999999999939e+00 4.251979999999999649e+00 1.905830999999999875e+01 4.048969999999999736e+00 3.582739999999999814e+00 2.582695999999999970e+01 3.996669999999999945e+00 3.891760000000000108e+00 2.250953000000000159e+01 1.947009999999999907e+00 3.492970000000000130e+00 1.564048999999999978e+01 2.000859999999999861e+00 3.819249999999999812e+00 2.621350000000000069e+00 1.325399999999999912e-01 8.471170000000000755e+00 6.010080000000000311e+00 2.162970000000000059e+00 8.555170000000000385e+00 9.490899999999999892e+00 1.018799999999999983e-01 8.459669999999999135e+00 1.293327999999999989e+01 2.187089999999999979e+00 8.287610000000000809e+00 1.665425000000000111e+01 1.546599999999999919e-01 8.105610000000000426e+00 2.033555000000000135e+01 2.281789999999999985e+00 7.785730000000000040e+00 2.402672000000000097e+01 3.473800000000000221e-01 7.792510000000000048e+00 2.772155000000000058e+01 2.179539999999999811e+00 8.116529999999999134e+00 3.469860000000000166e+00 2.054879999999999818e+00 3.141700000000000159e+00 7.090029999999999610e+00 4.103959999999999830e+00 3.096150000000000180e+00 1.063467999999999947e+01 2.028910000000000213e+00 2.941190000000000193e+00 2.132641999999999882e+01 4.010250000000000092e+00 2.147530000000000161e+00 2.494200000000000017e+01 1.965039999999999898e+00 2.329660000000000064e+00 1.420293999999999990e+01 4.035660000000000025e+00 2.667269999999999808e+00 1.776879999999999882e+01 1.986110000000000042e+00 2.280930000000000124e+00 0.000000000000000000e+00 0.000000000000000000e+00 2.873930000000000096e+00 1.731530000000000014e+00 2.178389999999999826e+00 6.747469999999999857e+00 5.017100000000000115e+00 9.020999999999999852e-02 6.864300000000000068e+00 1.203608999999999973e+01 8.487999999999999712e-02 6.591389999999999638e+00 8.462759999999999394e+00 2.130799999999999805e+00 6.821749999999999758e+00 2.004909999999999926e+01 2.056360000000000188e+00 5.224510000000000431e+00 2.664742999999999995e+01 1.940639999999999921e+00 5.689560000000000173e+00 2.338436000000000092e+01 4.082340000000000302e+00 5.295250000000000234e+00 1.650395999999999930e+01 1.520000000000000084e-03 5.508370000000000211e+00 3.661840000000000206e+00 2.178279999999999994e+00 9.916090000000000515e+00 7.231799999999999784e+00 1.065699999999999981e-01 9.891349999999999199e+00 1.077654000000000067e+01 2.160550000000000193e+00 9.776300000000000878e+00 2.151119999999999877e+01 2.309400000000000064e-01 8.943630000000000635e+00 2.499886000000000053e+01 2.388250000000000206e+00 9.111959999999999837e+00 1.438789000000000051e+01 1.594500000000000084e-01 9.414220000000000255e+00 1.798975000000000080e+01 2.212279999999999802e+00 9.121610000000000440e+00 4.027000000000000024e-02 1.274800000000000100e-01 9.600619999999999266e+00
7.142699999999999605e-01 2.052939999999999987e+00 4.378899999999999793e+00 4.539749999999999730e+00 1.459000000000000054e-02 4.458179999999999588e+00 1.184483999999999959e+01 5.815000000000000030e-02 4.258960000000000079e+00 8.184269999999999712e+00 2.085210000000000008e+00 4.472039999999999793e+00 1.906835999999999842e+01 4.009249999999999758e+00 3.865959999999999841e+00 2.586174000000000106e+01 4.080479999999999663e+00 3.952640000000000153e+00 2.249317999999999884e+01 1.999449999999999950e+00 3.843420000000000059e+00 1.549981999999999971e+01 1.895690000000000097e+00 4.182719999999999771e+00 2.568919999999999870e+00 2.259999999999999856e-02 8.607469999999999288e+00 5.944499999999999673e+00 2.109290000000000109e+00 8.731439999999999202e+00 9.396330000000000737e+00 1.090399999999999980e-01 8.698430000000000106e+00 1.282347999999999999e+01 2.220009999999999817e+00 8.519149999999999778e+00 1.645996999999999844e+01 3.829340000000000188e+00 8.518620000000000303e+00 2.016278000000000148e+01 1.914500000000000091e+00 8.175179999999999225e+00 2.385273000000000110e+01 4.019300000000000317e+00 8.109159999999999258e+00 2.771743000000000023e+01 2.047839999999999883e+00 8.160080000000000666e+00 3.415919999999999845e+00 2.068309999999999871e+00 3.275770000000000071e+00 7.008359999999999701e+00 3.448999999999999982e-02 3.285179999999999989e+00 1.054027999999999921e+01 2.113179999999999836e+00 3.182609999999999939e+00 2.129561999999999955e+01 4.042810000000000237e+00 2.465689999999999937e+00 2.482732999999999990e+01 2.019359999999999822e+00 2.486369999999999969e+00 1.410619999999999941e+01 4.072879999999999612e+00 2.931760000000000144e+00 1.767621000000000109e+01 1.950960000000000027e+00 2.704390000000000072e+00 0.000000000000000000e+00 0.000000000000000000e+00 2.873930000000000096e+00 1.710839999999999916e+00 2.072140000000000093e+00 6.833140000000000214e+00 4.946679999999999744e+00 4.345000000000000251e-02 7.030140000000000278e+00 1.182235000000000014e+01 1.618900000000000061e-01 6.868850000000000122e+00 8.349259999999999238e+00 2.143889999999999851e+00 7.040499999999999758e+00 1.988028999999999868e+01 1.955770000000000008e+00 5.601600000000000357e+00 2.666142999999999930e+01 2.033380000000000187e+00 5.713330000000000020e+00 2.339929000000000059e+01 4.052520000000000344e+00 5.535899999999999821e+00 1.555081000000000024e+01 3.758910000000000196e+00 6.083940000000000126e+00 3.568340000000000067e+00 2.080900000000000194e+00 1.006953000000000031e+01 7.114399999999999835e+00 6.450000000000000178e-02 1.009882999999999953e+01 1.065694000000000052e+01 2.161189999999999944e+00 1.001385999999999932e+01 2.138213999999999970e+01 3.970130000000000159e+00 9.299269999999999925e+00 2.497253999999999863e+01 1.970769999999999911e+00 9.271570000000000533e+00 1.418684999999999974e+01 1.215900000000000036e-01 9.780950000000000699e+00 1.784094999999999942e+01 1.789970000000000061e+00 9.505390000000000228e+00 2.839227999999999952e+01 4.102039999999999687e+00 9.673799999999999955e+00