-1.451190264100000036e+02
-1.450283089499999960e+02
-1.451110110799999973e+02
-1.451025927500000137e+02
-1.448526468899999884e+02
-1.448408221699999956e+02
-1.451110110799999973e+02
-1.447225582899999949e+02
-1.450202575399999887e+02
-1.449050010999999927e+02
-1.450556835300000103e+02
-1.451025204999999971e+02
-1.450901445300000034e+02
-1.451186665500000004e+02
