1.100999999999999982e-03 0.000000000000000000e+00 8.944000000000000561e-03 -4.133000000000000389e-03 0.000000000000000000e+00 7.550000000000000287e-04 -1.461999999999999975e-03 0.000000000000000000e+00 -2.138000000000000143e-03 5.700000000000000314e-05 0.000000000000000000e+00 -6.956000000000000377e-03 7.578999999999999800e-03 0.000000000000000000e+00 5.984999999999999869e-03 -4.088999999999999753e-03 0.000000000000000000e+00 -2.510000000000000078e-03 1.020000000000000073e-03 0.000000000000000000e+00 -1.105700000000000086e-02 6.858999999999999646e-03 0.000000000000000000e+00 1.000000000000000021e-03 2.520000000000000104e-03 0.000000000000000000e+00 -1.348500000000000046e-02 9.300000000000000541e-04 0.000000000000000000e+00 9.176999999999999394e-03 -2.569999999999999802e-03 0.000000000000000000e+00 3.795000000000000196e-03 -5.052000000000000067e-03 0.000000000000000000e+00 4.710000000000000102e-04 -9.060000000000000345e-03 0.000000000000000000e+00 -2.153800000000000159e-02 4.056999999999999842e-03 0.000000000000000000e+00 1.112900000000000000e-02 -1.178000000000000011e-03 0.000000000000000000e+00 -8.165000000000000382e-03 8.751000000000000098e-03 0.000000000000000000e+00 -2.307899999999999882e-02 6.210000000000000242e-03 0.000000000000000000e+00 1.160199999999999947e-02 1.861000000000000024e-03 0.000000000000000000e+00 1.059000000000000045e-02 2.237999999999999972e-03 0.000000000000000000e+00 1.199500000000000045e-02 -1.503999999999999912e-03 0.000000000000000000e+00 9.721999999999999739e-03 -7.659999999999999708e-04 0.000000000000000000e+00 1.217999999999999985e-02 4.747999999999999617e-03 0.000000000000000000e+00 1.176400000000000015e-02 -3.704999999999999960e-03 0.000000000000000000e+00 1.283300000000000066e-02 -2.082699999999999829e-02 0.000000000000000000e+00 -3.297000000000000017e-03 -5.050000000000000235e-04 0.000000000000000000e+00 1.917000000000000084e-03 1.410999999999999928e-03 0.000000000000000000e+00 1.569000000000000082e-03 1.482999999999999943e-03 0.000000000000000000e+00 2.649999999999999903e-04 -5.291999999999999829e-03 0.000000000000000000e+00 1.596999999999999895e-03 -1.242999999999999964e-03 0.000000000000000000e+00 1.051500000000000004e-02 5.512999999999999672e-03 0.000000000000000000e+00 1.155999999999999910e-03 4.347000000000000169e-03 0.000000000000000000e+00 5.203000000000000159e-03 7.659999999999999708e-04 0.000000000000000000e+00 -3.972999999999999969e-03 3.044999999999999964e-03 0.000000000000000000e+00 -4.483000000000000006e-03 3.909000000000000148e-03 0.000000000000000000e+00 -6.576000000000000248e-03 2.350999999999999791e-03 0.000000000000000000e+00 -1.978999999999999856e-03 -2.675999999999999993e-03 0.000000000000000000e+00 -4.200999999999999873e-03 -7.493999999999999793e-03 0.000000000000000000e+00 -7.492000000000000395e-03 9.430000000000000448e-04 0.000000000000000000e+00 -1.088800000000000011e-02 2.475000000000000203e-03 0.000000000000000000e+00 -6.888000000000000025e-03 -2.616999999999999969e-03 0.000000000000000000e+00 -5.459999999999999576e-03
-5.074000000000000385e-03 5.749999999999999903e-04 5.033000000000000147e-03 -1.289099999999999968e-02 1.241800000000000022e-02 1.838000000000000007e-03 -1.434400000000000085e-02 -5.730999999999999983e-03 4.093000000000000284e-03 -2.867999999999999890e-03 1.562400000000000073e-02 -3.410999999999999970e-03 5.148999999999999931e-03 9.166999999999999801e-03 2.086199999999999860e-02 -7.791000000000000182e-03 -1.107999999999999957e-02 -2.010000000000000068e-03 8.616999999999999660e-03 -3.503000000000000037e-03 -1.781699999999999950e-02 -1.218100000000000085e-02 5.740900000000000170e-02 -3.802900000000000030e-02 4.466999999999999617e-03 1.060099999999999931e-02 -5.924999999999999711e-03 -1.195000000000000099e-03 7.124000000000000124e-03 2.020000000000000040e-04 2.531999999999999963e-03 -5.277999999999999706e-03 -1.872800000000000159e-02 -2.377000000000000206e-03 -1.940899999999999917e-02 -9.700000000000000289e-03 -3.532699999999999729e-02 1.545209999999999917e-01 -9.140299999999999814e-02 -1.970200000000000076e-02 2.249100000000000057e-02 -2.802999999999999936e-03 -1.290400000000000054e-02 6.166999999999999739e-03 -2.707000000000000205e-03 6.841999999999999992e-03 -2.406999999999999851e-03 -2.164299999999999904e-02 6.599999999999999964e-03 -2.054999999999999969e-03 1.055700000000000041e-02 5.846999999999999767e-03 -2.669999999999999847e-04 1.080799999999999990e-02 3.609999999999999928e-03 3.834000000000000168e-03 1.010100000000000060e-02 -1.263000000000000017e-03 1.052600000000000063e-02 9.383000000000000715e-03 -1.599999999999999928e-05 5.108999999999999826e-03 1.060700000000000011e-02 -1.531999999999999942e-03 3.200000000000000067e-02 2.210099999999999912e-02 -3.575000000000000053e-03 3.416500000000000092e-02 9.790999999999999356e-03 1.094200000000000034e-02 -1.080899999999999916e-02 -1.603100000000000011e-02 -1.526000000000000013e-03 -1.696000000000000025e-03 1.923999999999999929e-03 1.897000000000000032e-03 -1.678000000000000021e-03 3.955000000000000182e-03 1.994800000000000045e-02 -2.915799999999999989e-02 9.679999999999999369e-03 7.607000000000000046e-03 -3.335999999999999990e-03 2.565000000000000006e-03 1.016899999999999922e-02 1.300600000000000020e-02 1.191599999999999951e-02 4.081000000000000426e-03 2.406000000000000152e-03 6.538000000000000408e-03 2.880999999999999880e-03 5.159000000000000391e-03 5.187999999999999903e-03 7.760799999999999643e-02 -4.116360000000000019e-01 1.276259999999999895e-01 3.200000000000000262e-04 -1.273000000000000043e-03 -6.847999999999999921e-03 8.600000000000000331e-05 -7.879999999999999635e-04 -5.878999999999999677e-03 -4.204000000000000271e-03 -1.912000000000000071e-03 -1.703000000000000087e-03 -6.774999999999999772e-03 1.781200000000000144e-02 -1.081599999999999923e-02 -7.045000000000000047e-03 4.983999999999999715e-03 -9.332999999999999283e-03 -1.954000000000000008e-03 -2.306499999999999870e-02 6.283999999999999655e-03 -2.122599999999999834e-02 1.080959999999999976e-01 -1.998799999999999882e-02 -3.431000000000000022e-03 1.886000000000000090e-03 -6.275000000000000196e-03
7.950000000000000469e-03 0.000000000000000000e+00 1.744800000000000170e-02 -5.980000000000000072e-03 0.000000000000000000e+00 8.673999999999999419e-03 -7.249999999999999500e-04 0.000000000000000000e+00 7.074999999999999692e-03 -5.096999999999999968e-03 0.000000000000000000e+00 4.969999999999999592e-03 3.570999999999999956e-03 0.000000000000000000e+00 5.687000000000000215e-03 2.765999999999999796e-03 0.000000000000000000e+00 6.823000000000000072e-03 -6.028999999999999637e-03 0.000000000000000000e+00 -1.920099999999999932e-02 -4.656000000000000416e-03 0.000000000000000000e+00 -2.835500000000000173e-02 3.027000000000000177e-03 0.000000000000000000e+00 -1.023600000000000031e-02 -1.471000000000000085e-03 0.000000000000000000e+00 1.818699999999999831e-02 -3.530999999999999851e-03 0.000000000000000000e+00 -1.663999999999999854e-02 -9.544999999999999665e-03 0.000000000000000000e+00 1.856500000000000164e-02 1.889999999999999970e-03 0.000000000000000000e+00 -1.182399999999999944e-02 2.320000000000000014e-03 0.000000000000000000e+00 4.687000000000000194e-03 1.026999999999999918e-03 0.000000000000000000e+00 6.866999999999999840e-03 4.305999999999999932e-03 0.000000000000000000e+00 -1.475899999999999955e-02 6.628000000000000211e-03 0.000000000000000000e+00 1.424699999999999925e-02 2.194000000000000204e-03 0.000000000000000000e+00 5.893999999999999934e-03 7.950000000000000252e-04 0.000000000000000000e+00 4.333000000000000046e-03 -1.657000000000000053e-03 0.000000000000000000e+00 8.052000000000000129e-03 3.256999999999999913e-03 0.000000000000000000e+00 6.538000000000000408e-03 -1.994999999999999812e-03 0.000000000000000000e+00 9.329999999999999752e-03 -1.689999999999999879e-04 0.000000000000000000e+00 1.173699999999999917e-02 4.859999999999999954e-04 0.000000000000000000e+00 2.220000000000000185e-03 -2.190999999999999805e-03 0.000000000000000000e+00 -5.199999999999999761e-03 -9.330000000000000186e-04 0.000000000000000000e+00 -2.288000000000000103e-03 -1.577000000000000060e-03 0.000000000000000000e+00 -4.048999999999999648e-03 -2.942000000000000171e-03 0.000000000000000000e+00 -9.287999999999999381e-03 4.115999999999999867e-03 0.000000000000000000e+00 3.301999999999999814e-03 1.972999999999999927e-03 0.000000000000000000e+00 -1.719999999999999958e-03 1.278999999999999972e-03 0.000000000000000000e+00 3.635000000000000210e-03 7.649999999999999465e-04 0.000000000000000000e+00 4.467999999999999750e-03 2.229999999999999994e-04 0.000000000000000000e+00 -6.841999999999999992e-03 6.347000000000000211e-03 0.000000000000000000e+00 -7.827999999999999889e-03 -1.696999999999999941e-03 0.000000000000000000e+00 -4.191000000000000281e-03 4.829999999999999767e-04 0.000000000000000000e+00 -5.889000000000000137e-03 -5.494999999999999885e-03 0.000000000000000000e+00 -1.136200000000000057e-02 3.001999999999999894e-03 0.000000000000000000e+00 -2.801000000000000104e-03 -1.948999999999999995e-03 0.000000000000000000e+00 -3.887999999999999963e-03 -7.640000000000000306e-04 0.000000000000000000e+00 -6.379000000000000122e-03
1.662000000000000066e-03 1.547999999999999897e-03 -3.338999999999999954e-03 1.283000000000000069e-03 5.165999999999999585e-03 -1.025299999999999996e-02 3.612999999999999892e-03 1.054999999999999948e-03 2.396000000000000126e-03 3.789999999999999966e-04 5.982000000000000338e-03 -2.837000000000000112e-03 -1.399999999999999979e-05 3.328999999999999928e-03 -2.113299999999999901e-02 -5.980000000000000072e-04 1.878399999999999861e-02 7.629000000000000364e-03 -1.941999999999999933e-03 5.237000000000000335e-03 -2.342299999999999938e-02 1.172100000000000052e-02 -6.342999999999999680e-03 -2.958500000000000019e-02 -6.481999999999999915e-03 -1.848000000000000033e-03 -2.528000000000000039e-02 3.439000000000000216e-03 -4.505999999999999589e-03 1.590899999999999953e-02 -1.574400000000000105e-02 -5.139999999999999604e-03 -2.910099999999999840e-02 -1.022699999999999998e-02 -3.256999999999999913e-03 2.053100000000000064e-02 8.819999999999999715e-04 -1.580000000000000024e-03 -1.565599999999999978e-02 -4.896000000000000178e-03 -9.381999999999999715e-03 -6.027000000000000239e-03 8.061000000000000457e-03 -1.080200000000000084e-02 1.790599999999999831e-02 7.797000000000000111e-03 2.609000000000000208e-03 -2.252300000000000135e-02 4.068999999999999700e-03 1.551000000000000078e-03 7.596000000000000321e-03 2.869000000000000022e-03 2.102000000000000136e-03 6.787999999999999763e-03 3.919999999999999873e-03 4.281000000000000083e-03 5.844000000000000236e-03 3.983000000000000429e-03 6.978999999999999961e-03 1.566000000000000031e-02 2.487000000000000061e-03 1.749999999999999982e-04 2.340199999999999919e-02 -1.405999999999999915e-03 7.069999999999999896e-03 3.729999999999999809e-03 8.630000000000000518e-04 6.496000000000000038e-03 1.175799999999999935e-02 -5.990000000000000316e-04 2.671300000000000063e-02 5.707299999999999873e-02 -1.889999999999999970e-03 -6.712000000000000084e-03 8.499999999999999526e-04 -1.708000000000000100e-03 2.187000000000000142e-03 -1.255000000000000039e-03 -6.099999999999999737e-04 3.135999999999999899e-03 -4.252999999999999836e-03 -2.749999999999999840e-03 3.896000000000000157e-03 -1.580999999999999940e-03 1.801000000000000083e-03 1.108999999999999960e-03 6.263999999999999603e-03 1.196900000000000047e-02 -5.856600000000000000e-02 2.007799999999999863e-02 -2.109000000000000197e-03 1.235100000000000087e-02 1.334399999999999996e-02 2.079000000000000119e-03 2.755000000000000070e-03 5.521999999999999999e-03 1.765000000000000076e-03 3.299999999999999982e-04 -7.679000000000000062e-03 -9.890000000000000787e-04 3.603999999999999999e-03 -8.824999999999999512e-03 8.189999999999999581e-04 4.516000000000000049e-03 -1.078600000000000045e-02 -7.411000000000000053e-03 -6.492999999999999640e-03 1.727999999999999935e-03 -5.198999999999999629e-03 -2.031799999999999926e-02 -4.202000000000000006e-03 -4.289000000000000278e-03 6.956999999999999643e-03 -7.896999999999999506e-03 -5.412000000000000144e-03 -8.639999999999999677e-04 -5.020000000000000157e-03 -1.183999999999999940e-03 -4.107000000000000407e-03 -3.353000000000000078e-03
4.422999999999999848e-03 5.418000000000000073e-03 1.062899999999999956e-02 -1.526999999999999929e-03 7.220999999999999988e-03 -1.097799999999999991e-02 3.562000000000000062e-03 -6.686000000000000103e-03 -3.989999999999999949e-04 2.116999999999999958e-03 1.667000000000000079e-03 -4.465000000000000219e-03 1.863000000000000073e-03 -1.060000000000000016e-04 -3.873900000000000260e-02 -1.381800000000000042e-02 5.575900000000000301e-02 -4.892699999999999827e-02 -2.037399999999999975e-02 1.564899999999999972e-02 3.540999999999999877e-03 1.161200000000000079e-02 -7.602000000000000250e-03 -3.587699999999999917e-02 -6.145000000000000288e-03 2.072200000000000084e-02 -1.938099999999999892e-02 4.252999999999999836e-03 6.688000000000000368e-03 1.106599999999999945e-02 -8.148999999999999994e-03 4.082999999999999824e-03 -1.667499999999999885e-02 -1.678999999999999937e-03 9.953999999999999307e-03 7.941999999999999407e-03 7.579999999999999932e-04 1.304899999999999984e-02 -7.517000000000000244e-03 -8.224999999999999672e-03 -1.638300000000000173e-02 6.493999999999999773e-03 1.815800000000000053e-02 -4.377600000000000241e-02 -1.931300000000000031e-02 -1.706000000000000051e-03 6.976999999999999869e-02 1.408200000000000077e-02 3.339999999999999870e-04 3.943999999999999589e-03 9.919000000000000733e-03 3.265999999999999806e-03 3.288999999999999823e-03 2.781000000000000052e-03 1.495000000000000018e-03 3.344999999999999883e-03 5.871999999999999616e-03 -5.126999999999999613e-03 1.365300000000000021e-02 3.814000000000000116e-03 -3.876000000000000105e-03 3.568799999999999750e-02 6.779999999999999569e-03 -3.294000000000000053e-03 1.776000000000000018e-03 9.440999999999999739e-03 -3.717999999999999951e-03 6.769999999999999976e-03 6.834999999999999930e-03 -3.901099999999999707e-02 -1.878200000000000008e-02 4.970100000000000212e-02 -1.894200000000000050e-02 2.450400000000000147e-02 1.420000000000000038e-03 -9.107999999999999777e-03 1.098999999999999977e-02 -3.078000000000000007e-03 2.660000000000000146e-04 4.425000000000000114e-03 1.793000000000000106e-03 -1.565999999999999901e-03 5.812999999999999591e-03 -1.010000000000000020e-04 2.586000000000000191e-03 4.702999999999999715e-03 -6.899999999999999667e-04 8.893600000000000116e-02 -2.786199999999999788e-01 9.330900000000000305e-02 6.629999999999999609e-04 3.867000000000000211e-03 -4.085000000000000089e-03 3.076999999999999874e-03 6.369999999999999794e-03 3.128999999999999837e-03 2.226000000000000114e-03 1.646800000000000000e-02 -7.050999999999999976e-03 5.199999999999999680e-05 8.689999999999999808e-03 -9.605999999999999955e-03 1.832000000000000078e-03 4.884000000000000320e-03 -1.067500000000000046e-02 -2.824999999999999820e-03 -6.028999999999999637e-03 -8.437000000000000055e-03 -5.328000000000000271e-03 -4.347199999999999676e-02 2.834000000000000147e-03 2.108000000000000065e-03 5.553999999999999909e-03 -8.743000000000000771e-03 -3.239000000000000126e-03 3.072000000000000078e-03 -6.322999999999999628e-03 4.070999999999999966e-03 4.367100000000000148e-02 9.679000000000000103e-03
-3.579999999999999741e-04 3.075000000000000042e-03 9.445999999999999536e-03 -3.095000000000000095e-03 1.556000000000000091e-03 -1.199199999999999919e-02 7.089999999999999948e-03 -8.835000000000000839e-03 2.706000000000000072e-03 1.209999999999999921e-03 -9.959999999999999236e-04 -1.802999999999999915e-03 9.636999999999999733e-03 -1.299000000000000024e-03 -3.463000000000000106e-02 -5.205000000000000425e-03 -9.235999999999999419e-03 2.096500000000000100e-02 -3.739999999999999835e-04 8.040000000000000271e-04 3.154999999999999818e-03 1.418699999999999996e-02 -5.995000000000000329e-03 -3.376599999999999741e-02 8.477999999999999425e-03 1.172899999999999984e-02 -2.505200000000000135e-02 7.176000000000000087e-03 -4.270999999999999623e-03 3.533000000000000116e-03 -4.086000000000000222e-03 1.830000000000000029e-03 -1.452699999999999998e-02 7.100000000000000462e-05 9.409999999999999962e-03 7.411000000000000053e-03 1.523999999999999964e-03 1.698200000000000057e-02 -3.912999999999999812e-03 -9.986000000000000085e-03 6.851999999999999584e-03 7.352000000000000028e-03 7.858999999999999667e-03 1.097399999999999938e-02 -1.332799999999999957e-02 3.593999999999999972e-03 -1.186300000000000028e-02 -5.300000000000000078e-05 2.232000000000000043e-03 1.778000000000000067e-03 8.033999999999999475e-03 4.375000000000000416e-03 3.230999999999999931e-03 2.926999999999999914e-03 2.958000000000000126e-03 3.431000000000000022e-03 6.760999999999999649e-03 -9.790000000000000525e-04 2.700999999999999842e-03 7.101999999999999806e-03 6.290000000000000018e-04 4.048999999999999648e-03 8.678999999999999215e-03 -2.043000000000000111e-03 8.390000000000000105e-04 7.993000000000000105e-03 -5.779999999999999548e-04 2.867999999999999890e-03 9.350000000000000672e-03 -4.567399999999999932e-02 -1.205149999999999971e-01 1.156039999999999984e-01 1.618999999999999996e-03 -8.570000000000000144e-04 -5.081999999999999712e-03 -7.259999999999999743e-04 2.795999999999999874e-03 -1.824000000000000100e-03 7.169999999999999724e-04 5.680000000000000153e-03 1.351999999999999903e-03 7.100000000000000191e-04 2.765000000000000097e-03 -1.822999999999999968e-03 5.643999999999999712e-03 3.203999999999999817e-03 1.433999999999999945e-03 -9.050000000000000752e-03 2.494700000000000042e-02 -7.322000000000000383e-03 5.833999999999999776e-03 3.259000000000000178e-03 5.090000000000000123e-04 1.732000000000000033e-03 6.185000000000000393e-03 3.956000000000000315e-03 1.018000000000000025e-03 6.299999999999999990e-05 -7.966000000000000858e-03 1.840999999999999972e-03 4.368000000000000355e-03 -8.881999999999999271e-03 3.634000000000000077e-03 4.545999999999999694e-03 -1.252600000000000068e-02 -7.766000000000000333e-03 1.291999999999999963e-03 -7.344999999999999966e-03 -3.079000000000000140e-03 6.071000000000000008e-03 -1.203300000000000029e-02 3.370999999999999865e-03 8.708999999999999728e-03 -8.177999999999999506e-03 -3.638999999999999874e-03 6.930000000000000396e-03 -5.185999999999999638e-03 -5.019999999999999506e-04 9.439999999999999607e-04 -1.103799999999999920e-02
7.950000000000000469e-03 0.000000000000000000e+00 1.744800000000000170e-02 -5.980000000000000072e-03 0.000000000000000000e+00 8.673999999999999419e-03 -7.249999999999999500e-04 0.000000000000000000e+00 7.074999999999999692e-03 -5.096999999999999968e-03 0.000000000000000000e+00 4.969999999999999592e-03 3.570999999999999956e-03 0.000000000000000000e+00 5.687000000000000215e-03 2.765999999999999796e-03 0.000000000000000000e+00 6.823000000000000072e-03 -6.028999999999999637e-03 0.000000000000000000e+00 -1.920099999999999932e-02 -4.656000000000000416e-03 0.000000000000000000e+00 -2.835500000000000173e-02 3.027000000000000177e-03 0.000000000000000000e+00 -1.023600000000000031e-02 -1.471000000000000085e-03 0.000000000000000000e+00 1.818699999999999831e-02 -3.530999999999999851e-03 0.000000000000000000e+00 -1.663999999999999854e-02 -9.544999999999999665e-03 0.000000000000000000e+00 1.856500000000000164e-02 1.889999999999999970e-03 0.000000000000000000e+00 -1.182399999999999944e-02 2.320000000000000014e-03 0.000000000000000000e+00 4.687000000000000194e-03 1.026999999999999918e-03 0.000000000000000000e+00 6.866999999999999840e-03 4.305999999999999932e-03 0.000000000000000000e+00 -1.475899999999999955e-02 6.628000000000000211e-03 0.000000000000000000e+00 1.424699999999999925e-02 2.194000000000000204e-03 0.000000000000000000e+00 5.893999999999999934e-03 7.950000000000000252e-04 0.000000000000000000e+00 4.333000000000000046e-03 -1.657000000000000053e-03 0.000000000000000000e+00 8.052000000000000129e-03 3.256999999999999913e-03 0.000000000000000000e+00 6.538000000000000408e-03 -1.994999999999999812e-03 0.000000000000000000e+00 9.329999999999999752e-03 -1.689999999999999879e-04 0.000000000000000000e+00 1.173699999999999917e-02 4.859999999999999954e-04 0.000000000000000000e+00 2.220000000000000185e-03 -2.190999999999999805e-03 0.000000000000000000e+00 -5.199999999999999761e-03 -9.330000000000000186e-04 0.000000000000000000e+00 -2.288000000000000103e-03 -1.577000000000000060e-03 0.000000000000000000e+00 -4.048999999999999648e-03 -2.942000000000000171e-03 0.000000000000000000e+00 -9.287999999999999381e-03 4.115999999999999867e-03 0.000000000000000000e+00 3.301999999999999814e-03 1.972999999999999927e-03 0.000000000000000000e+00 -1.719999999999999958e-03 1.278999999999999972e-03 0.000000000000000000e+00 3.635000000000000210e-03 7.649999999999999465e-04 0.000000000000000000e+00 4.467999999999999750e-03 2.229999999999999994e-04 0.000000000000000000e+00 -6.841999999999999992e-03 6.347000000000000211e-03 0.000000000000000000e+00 -7.827999999999999889e-03 -1.696999999999999941e-03 0.000000000000000000e+00 -4.191000000000000281e-03 4.829999999999999767e-04 0.000000000000000000e+00 -5.889000000000000137e-03 -5.494999999999999885e-03 0.000000000000000000e+00 -1.136200000000000057e-02 3.001999999999999894e-03 0.000000000000000000e+00 -2.801000000000000104e-03 -1.948999999999999995e-03 0.000000000000000000e+00 -3.887999999999999963e-03 -7.640000000000000306e-04 0.000000000000000000e+00 -6.379000000000000122e-03
-2.250999999999999963e-03 3.519999999999999908e-04 3.823000000000000009e-03 -1.112600000000000047e-02 1.248699999999999984e-02 4.039000000000000055e-03 9.336999999999999814e-03 -3.595999999999999804e-03 2.083000000000000216e-03 -2.593999999999999952e-03 1.694999999999999979e-02 -7.640000000000000306e-04 5.372000000000000039e-03 8.720999999999999586e-03 1.491699999999999970e-02 -7.609999999999999577e-03 -1.267599999999999977e-02 5.599999999999999916e-05 8.533000000000000654e-03 -8.491999999999999549e-03 -1.645200000000000135e-02 -3.461999999999999800e-03 -4.492999999999999598e-03 4.605999999999999851e-03 4.377999999999999947e-03 1.185100000000000042e-02 -3.435000000000000119e-03 -1.330999999999999935e-03 7.654000000000000213e-03 3.941000000000000059e-03 -9.520000000000000467e-04 2.749999999999999840e-03 -1.358600000000000085e-02 -8.170999999999999444e-03 -6.283000000000000390e-03 -2.385599999999999873e-02 -1.899000000000000080e-03 4.040000000000000080e-04 -1.565999999999999901e-03 -1.600999999999999993e-03 -1.191000000000000045e-02 -1.669599999999999904e-02 -2.150000000000000001e-03 6.250000000000000130e-04 -5.186999999999999771e-03 8.196000000000000160e-03 -5.506999999999999743e-03 -2.034000000000000044e-02 6.446999999999999606e-03 -2.527000000000000166e-03 1.091400000000000009e-02 4.584999999999999666e-03 -1.033999999999999980e-03 1.264499999999999999e-02 1.546999999999999981e-03 2.707999999999999904e-03 1.100399999999999989e-02 1.100000000000000039e-04 1.276999999999999923e-03 1.218699999999999992e-02 3.589999999999999984e-04 6.859999999999999779e-04 1.219399999999999998e-02 -1.234999999999999987e-03 3.285000000000000159e-03 1.108100000000000057e-02 -3.970000000000000005e-04 9.810000000000001011e-04 9.083000000000000795e-03 6.340000000000000149e-03 -1.443900000000000045e-02 -9.775000000000000702e-03 -1.557999999999999923e-03 -1.938999999999999968e-03 7.540000000000000044e-04 -6.089999999999999494e-04 -1.389999999999999905e-04 3.040000000000000167e-03 4.589999999999999896e-04 3.271000000000000036e-03 4.178000000000000290e-03 2.586000000000000191e-03 7.929999999999999766e-04 2.374999999999999941e-03 -1.489000000000000089e-03 -1.301000000000000073e-03 1.287499999999999929e-02 3.033000000000000106e-03 1.041000000000000042e-03 6.001000000000000258e-03 -9.049999999999999885e-04 -5.109999999999999525e-04 5.971999999999999878e-03 -4.099999999999999912e-04 9.849999999999999815e-04 7.356999999999999824e-03 9.680000000000000019e-04 -9.340000000000000429e-04 -7.542000000000000093e-03 5.739999999999999660e-04 1.701000000000000038e-03 -5.002000000000000370e-03 -1.440000000000000036e-04 2.696000000000000046e-03 -2.008999999999999935e-03 -3.092000000000000130e-03 -3.480000000000000020e-03 -5.916000000000000252e-03 -4.603000000000000320e-03 -2.887999999999999942e-03 -6.915000000000000140e-03 2.269999999999999882e-04 -1.599999999999999928e-05 -4.579999999999999870e-03 -3.001999999999999894e-03 -1.759999999999999954e-04 -4.857000000000000206e-03 -2.458000000000000115e-03 1.123000000000000083e-03 -6.647000000000000131e-03
-9.920199999999999851e-02 -7.230000000000000098e-04 4.421400000000000330e-02 -2.449300000000000088e-02 3.275999999999999832e-03 -1.101999999999999898e-03 -9.671000000000000776e-03 -5.207999999999999956e-03 -1.636000000000000084e-03 -9.957000000000000572e-03 -4.920000000000000328e-04 4.600000000000000139e-04 4.159999999999999744e-04 9.849999999999999815e-04 -5.878999999999999677e-03 3.536099999999999660e-02 2.322700000000000112e-02 2.282199999999999854e-02 1.597499999999999962e-02 1.816699999999999912e-02 1.438000000000000042e-02 9.636000000000000468e-03 -6.301000000000000177e-03 -3.578499999999999737e-02 1.315299999999999976e-02 8.260000000000000198e-04 2.627799999999999928e-02 7.347000000000000232e-03 -7.599999999999999985e-03 2.481000000000000132e-03 -1.671299999999999869e-02 -5.349999999999999938e-04 -4.049999999999999781e-03 -1.577299999999999883e-02 5.808999999999999928e-03 5.198999999999999629e-03 -1.021400000000000086e-02 9.412000000000000227e-03 -8.286999999999999228e-03 -1.837199999999999944e-02 -2.275100000000000039e-02 6.570999999999999584e-03 -7.664899999999999491e-02 -6.821199999999999486e-02 5.314900000000000180e-02 3.383300000000000196e-02 3.010999999999999788e-03 -3.615999999999999770e-02 -3.209599999999999953e-02 2.069000000000000093e-03 3.695600000000000274e-02 -1.277799999999999943e-02 1.796000000000000070e-03 1.464900000000000056e-02 -2.920999999999999985e-03 4.341000000000000240e-03 9.221000000000000030e-03 4.453999999999999626e-03 6.029999999999999770e-03 3.272900000000000115e-02 -1.610699999999999979e-02 9.645000000000000795e-03 1.189899999999999985e-02 -3.020000000000000115e-03 1.054000000000000032e-03 1.090299999999999950e-02 1.998000000000000210e-03 6.537000000000000276e-03 1.636599999999999860e-02 5.725399999999999934e-02 -9.717800000000000049e-02 -1.705730000000000024e-01 4.951699999999999852e-02 -1.590000000000000050e-03 2.131800000000000014e-02 1.155100000000000050e-02 1.781999999999999947e-03 1.101599999999999975e-02 7.552999999999999818e-03 3.237999999999999993e-03 -4.576000000000000206e-03 7.268000000000000155e-03 3.637000000000000042e-03 -4.510000000000000120e-04 1.830800000000000136e-02 5.400000000000000286e-03 6.454999999999999800e-03 1.125749999999999945e-01 1.126479999999999981e-01 -8.384700000000000486e-02 3.772899999999999865e-02 3.169999999999999901e-02 2.404600000000000140e-02 1.311799999999999945e-02 5.760999999999999628e-03 -2.393999999999999861e-03 6.098000000000000122e-03 1.631000000000000071e-03 1.482299999999999937e-02 1.350999999999999987e-03 7.854999999999999136e-03 -1.150999999999999896e-03 2.063999999999999863e-03 5.436999999999999993e-03 -1.232100000000000035e-02 -4.495299999999999990e-02 -1.178599999999999960e-02 2.897999999999999882e-02 -6.853999999999999850e-03 -6.341700000000000115e-02 -2.741499999999999840e-02 -4.003999999999999747e-03 4.726000000000000166e-03 -3.318000000000000203e-03 -1.616599999999999981e-02 1.647000000000000026e-03 -9.000000000000000567e-05 -2.661300000000000124e-02 4.144000000000000114e-03 -1.587900000000000075e-02