8.095888773000000427e+00 0.000000000000000000e+00 0.000000000000000000e+00 -3.966131011999999956e+00 6.901796163000000206e+00 0.000000000000000000e+00 -3.856490870000000015e-01 1.892412980000000022e-01 2.039239728600000134e+01
8.000219790999999248e+00 0.000000000000000000e+00 0.000000000000000000e+00 -3.880708676999999884e+00 6.902662225000000262e+00 0.000000000000000000e+00 4.577076970000000244e-01 -4.197996050000000201e-01 1.940467701000000034e+01
8.026673862000000881e+00 0.000000000000000000e+00 0.000000000000000000e+00 -3.967018794999999987e+00 7.139600546999999686e+00 0.000000000000000000e+00 4.721284040000000015e-01 -3.550748000000000099e-02 2.001341645799999824e+01
8.163903013000000541e+00 0.000000000000000000e+00 0.000000000000000000e+00 -3.885273526999999838e+00 7.110081199999999768e+00 0.000000000000000000e+00 5.345801970000000347e-01 -1.628026439999999964e-01 1.980247593800000061e+01
