-7.087767696000000228e+01
-7.052402970999999354e+01
-7.043958576999999366e+01
-7.044813091999999699e+01
