2.018510000000000026e-01 -4.087759999999999727e-01 -1.450599999999999945e-01 -1.199645000000000072e+00 3.454519999999999813e-01 -4.338910000000000267e-01 -4.122640000000000193e-01 4.477090000000000236e-01 3.362700000000000133e-01 -2.516269999999999896e-01 1.039589999999999959e-01 -7.260910000000000419e-01 -3.675990000000000091e-01 3.555400000000000227e-01 -1.304619999999999946e-01 3.310390000000000277e-01 -2.772620000000000084e-01 8.942500000000000449e-02 -3.703679999999999750e-01 -2.538500000000000201e-01 9.645789999999999642e-01 -2.611319999999999752e-01 -6.608999999999999597e-02 1.882089999999999874e-01 2.875759999999999983e-01 -7.011410000000000142e-01 -2.447960000000000136e-01 2.199500000000000066e-02 5.214750000000000218e-01 -3.909670000000000090e-01 -2.036850000000000049e-01 -1.307200000000000029e-01 6.185380000000000322e-01 1.161092999999999931e+00 3.436420000000000030e-01 -2.142900000000000083e-01 3.441359999999999975e-01 -2.106999999999999845e-02 6.314429999999999765e-01 -2.813499999999999890e-01 2.665569999999999884e-01 -2.309239999999999904e-01 -3.067449999999999899e-01 -2.462020000000000042e-01 6.087709999999999511e-01 6.802270000000000261e-01 -8.994299999999999518e-02 -3.381770000000000054e-01 5.349239999999999551e-01 1.505130000000000079e-01 -3.665999999999999814e-02 3.546380000000000088e-01 -3.605639999999999956e-01 1.813720000000000054e-01 1.399279999999999968e-01 1.058729999999999949e-01 -7.360240000000000116e-01 -4.029929999999999901e-01 -8.510099999999999609e-02 8.736000000000000709e-03
9.071300000000000197e-02 -5.363240000000000229e-01 -1.008493000000000084e+00 -3.266780000000000239e-01 1.239738000000000007e+00 -7.052289999999999948e-01 -2.665390000000000259e-01 -5.531099999999999905e-01 -1.150540000000000035e-01 6.172000000000000403e-03 -1.430703999999999976e+00 4.518869999999999831e-01 5.427589999999999915e-01 1.741790000000000005e-01 2.670300000000000104e-02 7.877469999999999750e-01 -5.664099999999999691e-02 5.737219999999999542e-01 -2.531829999999999914e-01 -5.033649999999999514e-01 2.840619999999999812e-01 -5.643920000000000048e-01 -6.720159999999999467e-01 -1.274919999999999942e-01 1.872910000000000130e-01 1.781242999999999910e+00 -3.270529999999999826e-01 1.478420000000000012e-01 4.848299999999999832e-01 6.806839999999999558e-01 4.029999999999999728e-03 -3.480329999999999813e-01 2.747620000000000062e-01 1.195660000000000056e-01 -2.664699999999999847e-01 2.667340000000000266e-01 2.903549999999999742e-01 -5.728400000000000158e-01 -9.617179999999999618e-01 -4.759490000000000109e-01 3.518549999999999733e-01 -5.232360000000000344e-01 3.693370000000000264e-01 3.669930000000000136e-01 1.010159999999999947e-01 2.513650000000000051e-01 -1.346060000000000034e-01 8.437310000000000088e-01 1.536160000000000025e-01 -2.330199999999999980e-02 -2.857089999999999907e-01 -1.848529999999999895e-01 4.214799999999999797e-02 2.406949999999999923e-01 -8.402150000000000452e-01 3.699109999999999898e-01 -2.710989999999999789e-01 -3.898499999999999882e-02 2.865159999999999929e-01 5.810849999999999627e-01
-2.967620000000000258e-01 -1.190736999999999934e+00 -4.161219999999999919e-01 8.895599999999999341e-02 3.582810000000000161e-01 -2.475219999999999920e-01 6.417399999999999494e-02 -4.072709999999999941e-01 -1.001937999999999995e+00 -1.236949999999999994e-01 1.997909999999999964e-01 -9.025560000000000249e-01 1.447950000000000070e-01 -8.150100000000000400e-02 -7.938180000000000236e-01 -1.389928000000000052e+00 -2.443499999999999839e-02 -3.679810000000000025e-01 1.829800000000000038e-01 -9.610109999999999486e-01 -5.241829999999999545e-01 3.825520000000000032e-01 -1.996159999999999879e-01 9.183299999999999796e-02 5.826210000000000555e-01 3.306270000000000042e-01 1.015239999999999920e+00 2.261809999999999932e-01 5.420200000000000018e-02 3.013000000000000053e-02 1.811599999999999877e-01 1.636039999999999994e-01 3.417999999999999927e-01 2.793200000000000127e-01 7.741149999999999975e-01 8.943199999999999761e-02 -4.467019999999999880e-01 2.967759999999999843e-01 6.380829999999999558e-01 -1.960540000000000060e-01 -2.724039999999999795e-01 -2.740020000000000233e-01 4.801369999999999805e-01 7.640759999999999774e-01 -5.727780000000000094e-01 2.676600000000000160e-02 -9.901100000000000179e-02 1.037610000000000060e-01 3.627600000000000269e-02 4.736400000000000332e-02 4.878350000000000186e-01 1.185159999999999964e-01 8.035320000000000240e-01 1.249149999999999983e+00 -5.646010000000000195e-01 1.949279999999999902e-01 7.524950000000000250e-01 2.233090000000000075e-01 -7.513090000000000046e-01 3.011409999999999920e-01
-5.553029999999999911e-01 -4.735530000000000017e-01 -5.389720000000000066e-01 2.890179999999999971e-01 1.001839999999999953e-01 4.021279999999999855e-01 -1.406360000000000110e-01 -1.588660000000000072e-01 -4.238160000000000260e-01 -5.937599999999999545e-01 6.713820000000000343e-01 -1.054859999999999964e-01 1.018280000000000018e-01 3.407029999999999781e-01 2.012829999999999897e-01 -7.833700000000000385e-02 2.034320000000000017e-01 -1.114945000000000075e+00 -5.383809999999999985e-01 3.062300000000000091e-02 6.164899999999999824e-01 -6.019609999999999683e-01 1.725327000000000055e+00 -5.234750000000000236e-01 -6.703499999999999737e-02 -1.086059999999999942e-01 6.615029999999999522e-01 1.705339999999999911e-01 -9.587600000000000289e-02 -3.738549999999999929e-01 2.828809999999999936e-01 -4.387199999999999989e-01 -6.927099999999999924e-02 5.456149999999999611e-01 -2.297069999999999945e-01 -2.977409999999999779e-01 2.786350000000000215e-01 4.406510000000000149e-01 4.997369999999999868e-01 -3.423430000000000084e-01 3.020789999999999864e-01 -9.781700000000000117e-02 -5.119930000000000314e-01 9.112699999999999967e-02 -7.558439999999999603e-01 2.164639999999999898e-01 -3.501190000000000135e-01 -4.413900000000000046e-01 5.492420000000000080e-01 -1.304610000000000047e+00 5.026080000000000547e-01 1.367928000000000033e+00 8.582419999999999494e-01 4.965240000000000209e-01 -7.388599999999999335e-02 -1.248671000000000086e+00 3.631619999999999848e-01 -2.985090000000000243e-01 -3.550220000000000042e-01 9.991740000000000066e-01
