8.261923428999999430e+00 0.000000000000000000e+00 0.000000000000000000e+00 -4.036057966000000441e+00 7.009298985000000037e+00 0.000000000000000000e+00 -4.868410000000000099e-04 4.659779999999999760e-04 2.999999999199999934e+01
8.551751804000000234e+00 0.000000000000000000e+00 0.000000000000000000e+00 2.538927628000000158e+00 6.837387944999999689e+00 0.000000000000000000e+00 -5.278379999999999834e-04 5.052369999999999604e-04 2.999999999099999926e+01
8.017173238999999896e+00 0.000000000000000000e+00 0.000000000000000000e+00 -4.210063050999999668e+00 7.312799665000000005e+00 0.000000000000000000e+00 -5.278379999999999834e-04 5.052369999999999604e-04 2.999999999099999926e+01
7.676120658000000319e+00 0.000000000000000000e+00 0.000000000000000000e+00 2.611746425999999843e+00 7.033490570999999747e+00 0.000000000000000000e+00 -5.278379999999999834e-04 5.052369999999999604e-04 2.999999999099999926e+01
8.382770542999999464e+00 0.000000000000000000e+00 0.000000000000000000e+00 -3.981923387000000147e+00 6.916197301999999603e+00 0.000000000000000000e+00 -5.169550000000000404e-04 4.948139999999999960e-04 2.999999999199999934e+01
7.944622056000000043e+00 0.000000000000000000e+00 0.000000000000000000e+00 3.725100459000000086e+00 9.879028176000000272e+00 0.000000000000000000e+00 -4.868410000000000099e-04 4.659779999999999760e-04 2.999999999199999934e+01
8.635893650999999949e+00 0.000000000000000000e+00 0.000000000000000000e+00 2.717934866999999866e+00 7.208008328000000020e+00 0.000000000000000000e+00 -4.868410000000000099e-04 4.659779999999999760e-04 2.999999999199999934e+01
