1.137999999999999949e-02 2.330080000000000151e+00 1.577769999999999895e+00 -1.951969999999999983e+00 5.838829999999999742e+00 1.579499999999999904e+00 4.048860000000000348e+00 2.317899999999999849e+00 1.569050000000000056e+00 2.082370000000000054e+00 5.842579999999999885e+00 1.576710000000000056e+00 7.968410000000000437e+00 -5.242999999999999744e-02 5.772960000000000313e+00 6.003459999999999575e+00 3.470530000000000115e+00 5.768779999999999575e+00 3.944789999999999797e+00 -5.360999999999999793e-02 5.772890000000000299e+00 1.975519999999999943e+00 3.466110000000000024e+00 5.772439999999999571e+00 2.037710000000000132e+00 1.173650000000000082e+00 2.631200000000000205e-01 6.241000000000000020e-02 4.690360000000000085e+00 2.514100000000000223e-01 6.056400000000000006e+00 1.168239999999999945e+00 2.536700000000000066e-01 4.096260000000000012e+00 4.687210000000000321e+00 2.594400000000000039e-01 -3.729999999999999982e-02 2.311360000000000081e+00 4.086669999999999803e+00 -2.005310000000000148e+00 5.830829999999999735e+00 4.087040000000000006e+00 4.000429999999999708e+00 2.317610000000000170e+00 4.086179999999999701e+00 2.020410000000000039e+00 5.833109999999999573e+00 4.081570000000000142e+00 1.924090000000000078e+00 1.095220000000000082e+00 7.166970000000000063e+00 -3.620999999999999913e-02 4.620809999999999640e+00 7.168730000000000047e+00 5.959970000000000212e+00 1.097760000000000069e+00 7.169139999999999624e+00 3.996080000000000076e+00 4.610380000000000145e+00 7.174900000000000055e+00
1.229000000000000058e-02 2.336250000000000160e+00 1.578000000000000069e+00 -1.952220000000000066e+00 5.840329999999999799e+00 1.582070000000000087e+00 4.048070000000000057e+00 2.317369999999999930e+00 1.570740000000000025e+00 2.079239999999999977e+00 5.844039999999999679e+00 1.580829999999999957e+00 7.970919999999999561e+00 -4.939000000000000334e-02 5.777829999999999799e+00 6.001430000000000042e+00 3.464589999999999836e+00 5.773410000000000153e+00 3.943350000000000133e+00 -5.525000000000000050e-02 5.769160000000000288e+00 1.971659999999999968e+00 3.470489999999999853e+00 5.773039999999999949e+00 2.039870000000000072e+00 1.168269999999999920e+00 2.608199999999999963e-01 6.557999999999999940e-02 4.687990000000000101e+00 2.499200000000000033e-01 6.059330000000000105e+00 1.163219999999999921e+00 2.514799999999999813e-01 4.094129999999999825e+00 4.684800000000000075e+00 2.607099999999999973e-01 -4.048000000000000209e-02 2.309740000000000126e+00 4.078190000000000204e+00 -1.999640000000000084e+00 5.833719999999999573e+00 4.078870000000000218e+00 4.003260000000000041e+00 2.314470000000000027e+00 4.091160000000000352e+00 2.019260000000000055e+00 5.833050000000000068e+00 4.083389999999999631e+00 1.927009999999999890e+00 1.098500000000000032e+00 7.164270000000000138e+00 -3.201999999999999985e-02 4.628350000000000186e+00 7.163949999999999818e+00 5.953990000000000116e+00 1.090510000000000090e+00 7.163890000000000313e+00 3.996370000000000200e+00 4.611640000000000406e+00 7.180430000000000312e+00
1.322000000000000085e-02 2.342439999999999856e+00 1.578000000000000069e+00 -1.952460000000000084e+00 5.841859999999999609e+00 1.584400000000000031e+00 4.047299999999999898e+00 2.316879999999999828e+00 1.572289999999999965e+00 2.076109999999999900e+00 5.845519999999999605e+00 1.584740000000000038e+00 -8.661000000000000643e-02 -4.639000000000000068e-02 5.782820000000000071e+00 5.999399999999999622e+00 3.458629999999999871e+00 5.778170000000000250e+00 7.919999999999999957e-03 6.979409999999999670e+00 5.765539999999999665e+00 1.967810000000000059e+00 3.474839999999999929e+00 5.773749999999999716e+00 2.041959999999999997e+00 1.162840000000000096e+00 2.586399999999999810e-01 6.873999999999999555e-02 4.685590000000000366e+00 2.485600000000000032e-01 6.062260000000000204e+00 1.158169999999999922e+00 2.494300000000000128e-01 4.091990000000000016e+00 4.682339999999999947e+00 2.620999999999999996e-01 -4.363999999999999824e-02 2.308110000000000106e+00 4.069899999999999629e+00 -1.993989999999999929e+00 5.836599999999999788e+00 4.070890000000000342e+00 4.006079999999999863e+00 2.311339999999999950e+00 4.096230000000000260e+00 2.018139999999999823e+00 5.832980000000000054e+00 4.085370000000000168e+00 1.929939999999999989e+00 1.101830000000000087e+00 7.161419999999999675e+00 -2.783000000000000057e-02 4.635909999999999975e+00 7.159029999999999561e+00 5.948039999999999772e+00 1.083320000000000061e+00 7.158500000000000085e+00 3.996659999999999879e+00 4.612969999999999793e+00 7.185760000000000147e+00
1.416000000000000071e-02 2.348619999999999930e+00 1.577739999999999920e+00 -1.952679999999999971e+00 5.843420000000000059e+00 1.586470000000000047e+00 4.046549999999999869e+00 2.316429999999999989e+00 1.573679999999999968e+00 2.072999999999999954e+00 5.847030000000000172e+00 1.588419999999999943e+00 -8.409999999999999420e-02 -4.343999999999999945e-02 5.787919999999999732e+00 5.997379999999999711e+00 3.452659999999999840e+00 5.783050000000000246e+00 6.429999999999999952e-03 6.977750000000000341e+00 5.762019999999999698e+00 1.963980000000000059e+00 3.479159999999999808e+00 5.774560000000000137e+00 2.043989999999999974e+00 1.157380000000000075e+00 2.565899999999999848e-01 7.187000000000000333e-02 4.683150000000000368e+00 2.473400000000000043e-01 6.065199999999999925e+00 1.153089999999999948e+00 2.475100000000000078e-01 4.089830000000000076e+00 4.679850000000000065e+00 2.636200000000000210e-01 -4.678999999999999826e-02 2.306480000000000086e+00 4.061829999999999607e+00 -1.988359999999999905e+00 5.839470000000000383e+00 4.063170000000000393e+00 4.008880000000000443e+00 2.308199999999999807e+00 4.101370000000000182e+00 2.017049999999999788e+00 5.832889999999999908e+00 4.087509999999999977e+00 1.932879999999999932e+00 1.105210000000000026e+00 7.158419999999999561e+00 -2.367999999999999966e-02 4.643460000000000143e+00 7.153970000000000162e+00 5.942129999999999690e+00 1.076200000000000045e+00 7.152999999999999581e+00 3.996960000000000068e+00 4.614340000000000330e+00 7.190900000000000070e+00
1.511999999999999976e-02 2.354789999999999939e+00 1.577199999999999935e+00 -1.952900000000000080e+00 5.844999999999999751e+00 1.588240000000000096e+00 4.045819999999999972e+00 2.316009999999999902e+00 1.574910000000000032e+00 2.069900000000000073e+00 5.848559999999999981e+00 1.591879999999999962e+00 -8.160000000000000586e-02 -4.055000000000000271e-02 5.793110000000000426e+00 5.995359999999999800e+00 3.446699999999999875e+00 5.788039999999999630e+00 4.919999999999999894e-03 6.976090000000000124e+00 5.758569999999999744e+00 1.960190000000000099e+00 3.483429999999999804e+00 5.775470000000000326e+00 2.045949999999999935e+00 1.151890000000000081e+00 2.546800000000000175e-01 7.495000000000000273e-02 4.680699999999999861e+00 2.462600000000000067e-01 6.068130000000000024e+00 1.147999999999999909e+00 2.457600000000000062e-01 4.087670000000000137e+00 4.677330000000000432e+00 2.652900000000000258e-01 -4.993000000000000216e-02 2.304850000000000065e+00 4.054050000000000153e+00 -1.982769999999999921e+00 5.842299999999999827e+00 4.055749999999999744e+00 4.011639999999999873e+00 2.305079999999999796e+00 4.106580000000000119e+00 2.016000000000000014e+00 5.832779999999999632e+00 4.089819999999999567e+00 1.935829999999999940e+00 1.108640000000000070e+00 7.155280000000000307e+00 -1.958000000000000018e-02 4.650979999999999670e+00 7.148789999999999978e+00 5.936280000000000001e+00 1.069180000000000019e+00 7.147409999999999819e+00 3.997279999999999944e+00 4.615779999999999994e+00 7.195839999999999570e+00
1.609999999999999973e-02 2.360939999999999817e+00 1.576349999999999918e+00 -1.953100000000000058e+00 5.846589999999999954e+00 1.589679999999999982e+00 4.045119999999999827e+00 2.315609999999999946e+00 1.575990000000000002e+00 2.066829999999999945e+00 5.850109999999999921e+00 1.595099999999999962e+00 -7.908999999999999364e-02 -3.772999999999999965e-02 5.798390000000000377e+00 5.993350000000000399e+00 3.440760000000000041e+00 5.793140000000000178e+00 3.370000000000000166e-03 6.974429999999999907e+00 5.755180000000000184e+00 1.956439999999999957e+00 3.487670000000000048e+00 5.776460000000000150e+00 2.047839999999999883e+00 1.146400000000000086e+00 2.529199999999999782e-01 7.797999999999999376e-02 4.678239999999999732e+00 2.453200000000000103e-01 6.071049999999999613e+00 1.142910000000000093e+00 2.441800000000000082e-01 4.085490000000000066e+00 4.674780000000000157e+00 2.671100000000000141e-01 -5.303999999999999687e-02 2.303220000000000045e+00 4.046579999999999622e+00 -1.977219999999999978e+00 5.845089999999999897e+00 4.048680000000000057e+00 4.014370000000000438e+00 2.301979999999999915e+00 4.111830000000000318e+00 2.015010000000000190e+00 5.832650000000000112e+00 4.092299999999999827e+00 1.938770000000000104e+00 1.112119999999999997e+00 7.152009999999999756e+00 -1.557000000000000051e-02 4.658470000000000333e+00 7.143510000000000026e+00 5.930500000000000327e+00 1.062259999999999982e+00 7.141759999999999664e+00 3.997609999999999886e+00 4.617259999999999920e+00 7.200560000000000294e+00
1.710000000000000062e-02 2.367049999999999876e+00 1.575180000000000025e+00 -1.953289999999999971e+00 5.848189999999999777e+00 1.590759999999999952e+00 4.044450000000000323e+00 2.315230000000000121e+00 1.576910000000000034e+00 2.063790000000000013e+00 5.851670000000000371e+00 1.598079999999999945e+00 -7.657999999999999530e-02 -3.499000000000000027e-02 5.803740000000000343e+00 5.991340000000000110e+00 3.434829999999999828e+00 5.798350000000000115e+00 1.770000000000000089e-03 6.972789999999999822e+00 5.751829999999999998e+00 1.952739999999999920e+00 3.491870000000000029e+00 5.777529999999999610e+00 2.049650000000000194e+00 1.140910000000000091e+00 2.513199999999999878e-01 8.096000000000000418e-02 4.675779999999999603e+00 2.445199999999999874e-01 6.073959999999999582e+00 1.137839999999999963e+00 2.427799999999999958e-01 4.083319999999999617e+00 4.672200000000000131e+00 2.691000000000000059e-01 -5.614000000000000240e-02 2.301579999999999959e+00 4.039480000000000182e+00 -1.971719999999999917e+00 5.847839999999999705e+00 4.042019999999999946e+00 4.017059999999999853e+00 2.298909999999999787e+00 4.117119999999999891e+00 2.014079999999999870e+00 5.832499999999999574e+00 4.094949999999999868e+00 1.941689999999999916e+00 1.115660000000000096e+00 7.148620000000000196e+00 -1.166000000000000023e-02 4.665890000000000093e+00 7.138150000000000439e+00 5.924809999999999910e+00 1.055449999999999999e+00 7.136070000000000135e+00 3.997959999999999958e+00 4.618809999999999860e+00 7.205070000000000086e+00
1.812000000000000069e-02 2.373120000000000118e+00 1.573649999999999993e+00 -1.953480000000000105e+00 5.849789999999999601e+00 1.591460000000000097e+00 4.043809999999999683e+00 2.314859999999999918e+00 1.577679999999999971e+00 2.060779999999999834e+00 5.853240000000000443e+00 1.600819999999999910e+00 -7.406000000000000083e-02 -3.232999999999999763e-02 5.809169999999999945e+00 5.989340000000000330e+00 3.428939999999999877e+00 5.803679999999999950e+00 1.299999999999999886e-04 6.971149999999999736e+00 5.748509999999999565e+00 1.949109999999999898e+00 3.496020000000000127e+00 5.778649999999999842e+00 2.051400000000000112e+00 1.135440000000000005e+00 2.498700000000000088e-01 8.387999999999999623e-02 4.673350000000000115e+00 2.438400000000000012e-01 6.076850000000000307e+00 1.132779999999999898e+00 2.415700000000000069e-01 4.081140000000000434e+00 4.669609999999999594e+00 2.712499999999999911e-01 -5.920999999999999874e-02 2.299939999999999873e+00 4.032770000000000188e+00 -1.966290000000000093e+00 5.850539999999999630e+00 4.035800000000000054e+00 4.019689999999999763e+00 2.295869999999999855e+00 4.122419999999999973e+00 2.013220000000000010e+00 5.832320000000000171e+00 4.097769999999999690e+00 1.944600000000000106e+00 1.119259999999999922e+00 7.145120000000000360e+00 -7.860000000000000667e-03 4.673230000000000217e+00 7.132729999999999571e+00 5.919220000000000148e+00 1.048759999999999915e+00 7.130359999999999587e+00 3.998330000000000162e+00 4.620409999999999684e+00 7.209360000000000213e+00
1.915999999999999995e-02 2.379140000000000033e+00 1.571749999999999980e+00 -1.953650000000000109e+00 5.851390000000000313e+00 1.591749999999999998e+00 4.043219999999999814e+00 2.314499999999999780e+00 1.578300000000000036e+00 2.057809999999999917e+00 5.854829999999999757e+00 1.603320000000000078e+00 -7.152000000000000024e-02 -2.976000000000000173e-02 5.814669999999999561e+00 5.987339999999999662e+00 3.423080000000000123e+00 5.809110000000000440e+00 -1.569999999999999998e-03 6.969520000000000159e+00 5.745180000000000398e+00 1.945559999999999956e+00 3.500129999999999963e+00 5.779819999999999958e+00 2.053069999999999951e+00 1.129990000000000050e+00 2.485799999999999954e-01 8.673000000000000154e-02 4.670939999999999870e+00 2.432900000000000063e-01 6.079720000000000013e+00 1.127750000000000030e+00 2.405500000000000138e-01 4.078969999999999985e+00 4.666990000000000194e+00 2.735799999999999899e-01 -6.226999999999999896e-02 2.298290000000000166e+00 4.026489999999999903e+00 -1.960919999999999996e+00 5.853180000000000049e+00 4.030059999999999754e+00 4.022269999999999790e+00 2.292870000000000186e+00 4.127720000000000056e+00 2.012449999999999850e+00 5.832110000000000127e+00 4.100760000000000183e+00 1.947489999999999943e+00 1.122919999999999918e+00 7.141519999999999868e+00 -4.210000000000000200e-03 4.680489999999999817e+00 7.127259999999999707e+00 5.913739999999999775e+00 1.042200000000000015e+00 7.124649999999999928e+00 3.998740000000000183e+00 4.622069999999999901e+00 7.213440000000000296e+00
2.023000000000000145e-02 2.385089999999999932e+00 1.569469999999999921e+00 -1.953829999999999956e+00 5.852979999999999627e+00 1.591599999999999904e+00 4.042670000000000208e+00 2.314140000000000086e+00 1.578770000000000007e+00 2.054870000000000196e+00 5.856429999999999580e+00 1.605590000000000073e+00 -6.897000000000000353e-02 -2.726999999999999910e-02 5.820229999999999571e+00 5.985350000000000392e+00 3.417250000000000121e+00 5.814650000000000318e+00 -3.340000000000000087e-03 6.967920000000000336e+00 5.741830000000000211e+00 1.942080000000000028e+00 3.504199999999999982e+00 5.781030000000000335e+00 2.054660000000000153e+00 1.124570000000000070e+00 2.474500000000000033e-01 8.951000000000000623e-02 4.668560000000000265e+00 2.428599999999999925e-01 6.082569999999999588e+00 1.122749999999999915e+00 2.397400000000000087e-01 4.076800000000000423e+00 4.664360000000000284e+00 2.761000000000000121e-01 -6.531000000000000694e-02 2.296629999999999949e+00 4.020669999999999966e+00 -1.955629999999999979e+00 5.855769999999999698e+00 4.024840000000000195e+00 4.024790000000000312e+00 2.289909999999999890e+00 4.133009999999999629e+00 2.011769999999999836e+00 5.831879999999999953e+00 4.103909999999999947e+00 1.950360000000000094e+00 1.126659999999999995e+00 7.137830000000000119e+00 -7.200000000000000453e-04 4.687660000000000160e+00 7.121749999999999581e+00 5.908369999999999678e+00 1.035770000000000080e+00 7.118970000000000020e+00 3.999169999999999892e+00 4.623780000000000001e+00 7.217299999999999827e+00
2.132999999999999827e-02 2.390979999999999883e+00 1.566789999999999905e+00 -1.953999999999999959e+00 5.854569999999999830e+00 1.591010000000000035e+00 4.042159999999999975e+00 2.313769999999999882e+00 1.579110000000000014e+00 2.051969999999999850e+00 5.858050000000000423e+00 1.607629999999999892e+00 -6.639000000000000457e-02 -2.488999999999999893e-02 5.825849999999999973e+00 5.983369999999999855e+00 3.411470000000000002e+00 5.820299999999999585e+00 -5.179999999999999709e-03 6.966330000000000133e+00 5.738439999999999763e+00 1.938690000000000024e+00 3.508220000000000116e+00 5.782269999999999577e+00 2.056189999999999962e+00 1.119199999999999973e+00 2.464800000000000046e-01 9.221999999999999642e-02 4.666240000000000165e+00 2.425299999999999956e-01 6.085379999999999789e+00 1.117799999999999905e+00 2.391300000000000092e-01 4.074629999999999974e+00 4.661710000000000242e+00 2.788200000000000123e-01 -6.833000000000000185e-02 2.294970000000000176e+00 4.015310000000000379e+00 -1.950409999999999977e+00 5.858290000000000219e+00 4.020150000000000112e+00 4.027250000000000441e+00 2.287009999999999987e+00 4.138270000000000337e+00 2.011190000000000033e+00 5.831620000000000026e+00 4.107219999999999871e+00 1.953209999999999891e+00 1.130470000000000086e+00 7.134039999999999715e+00 2.589999999999999854e-03 4.694709999999999717e+00 7.116229999999999833e+00 5.903129999999999988e+00 1.029470000000000107e+00 7.113339999999999996e+00 3.999639999999999862e+00 4.625560000000000116e+00 7.220939999999999692e+00
2.245000000000000120e-02 2.396790000000000198e+00 1.563700000000000090e+00 -1.954169999999999963e+00 5.856139999999999901e+00 1.589949999999999974e+00 4.041699999999999626e+00 2.313390000000000057e+00 1.579309999999999992e+00 2.049110000000000209e+00 5.859670000000000378e+00 1.609450000000000047e+00 -6.378999999999999948e-02 -2.259999999999999856e-02 5.831540000000000390e+00 5.981379999999999697e+00 3.405720000000000081e+00 5.826080000000000148e+00 -7.100000000000000408e-03 6.964769999999999683e+00 5.734969999999999679e+00 1.935389999999999944e+00 3.512199999999999989e+00 5.783520000000000216e+00 2.057650000000000201e+00 1.113879999999999981e+00 2.456599999999999895e-01 9.485000000000000375e-02 4.663969999999999949e+00 2.422999999999999876e-01 6.088180000000000369e+00 1.112889999999999935e+00 2.387199999999999878e-01 4.072460000000000413e+00 4.659040000000000070e+00 2.817299999999999804e-01 -7.134000000000000064e-02 2.293280000000000207e+00 4.010449999999999626e+00 -1.945259999999999989e+00 5.860739999999999839e+00 4.016029999999999767e+00 4.029650000000000176e+00 2.284149999999999903e+00 4.143489999999999895e+00 2.010720000000000063e+00 5.831319999999999837e+00 4.110689999999999955e+00 1.956020000000000092e+00 1.134370000000000100e+00 7.130180000000000184e+00 5.709999999999999798e-03 4.701649999999999885e+00 7.110710000000000086e+00 5.898030000000000328e+00 1.023309999999999942e+00 7.107779999999999987e+00 4.000160000000000160e+00 4.627399999999999736e+00 7.224370000000000402e+00
2.360999999999999904e-02 2.402530000000000054e+00 1.560200000000000031e+00 -1.954339999999999966e+00 5.857700000000000351e+00 1.588419999999999943e+00 4.041299999999999670e+00 2.312990000000000101e+00 1.579380000000000006e+00 2.046289999999999942e+00 5.861299999999999955e+00 1.611070000000000002e+00 -6.115999999999999909e-02 -2.041000000000000106e-02 5.837290000000000312e+00 5.979400000000000048e+00 3.400009999999999977e+00 5.831979999999999720e+00 -9.110000000000000042e-03 6.963230000000000253e+00 5.731410000000000338e+00 1.932190000000000074e+00 3.516140000000000043e+00 5.784779999999999589e+00 2.059050000000000047e+00 1.108619999999999939e+00 2.449900000000000133e-01 9.740999999999999659e-02 4.661769999999999747e+00 2.421599999999999864e-01 6.090939999999999799e+00 1.108030000000000070e+00 2.385299999999999920e-01 4.070289999999999964e+00 4.656349999999999767e+00 2.848499999999999921e-01 -7.434000000000000330e-02 2.291580000000000172e+00 4.006079999999999863e+00 -1.940190000000000081e+00 5.863129999999999953e+00 4.012480000000000047e+00 4.031970000000000276e+00 2.281359999999999832e+00 4.148649999999999949e+00 2.010369999999999990e+00 5.830989999999999895e+00 4.114289999999999559e+00 1.958809999999999940e+00 1.138360000000000039e+00 7.126240000000000130e+00 8.609999999999999598e-03 4.708459999999999646e+00 7.105220000000000091e+00 5.893069999999999808e+00 1.017279999999999962e+00 7.102299999999999613e+00 4.000709999999999766e+00 4.629299999999999748e+00 7.227590000000000181e+00
2.480999999999999872e-02 2.408189999999999831e+00 1.556280000000000108e+00 -1.954520000000000035e+00 5.859230000000000160e+00 1.586400000000000032e+00 4.040949999999999598e+00 2.312570000000000014e+00 1.579339999999999966e+00 2.043509999999999938e+00 5.862949999999999662e+00 1.612479999999999913e+00 -5.847999999999999726e-02 -1.832999999999999907e-02 5.843099999999999739e+00 5.977420000000000400e+00 3.394340000000000135e+00 5.838009999999999700e+00 -1.123000000000000040e-02 6.961719999999999686e+00 5.727719999999999700e+00 1.929100000000000037e+00 3.520049999999999901e+00 5.786030000000000229e+00 2.060379999999999878e+00 1.103410000000000002e+00 2.444699999999999929e-01 9.990000000000000269e-02 4.659650000000000070e+00 2.420799999999999896e-01 6.093679999999999986e+00 1.103220000000000089e+00 2.385500000000000120e-01 4.068120000000000402e+00 4.653640000000000221e+00 2.881799999999999917e-01 -7.732999999999999596e-02 2.289860000000000007e+00 4.002220000000000333e+00 -1.935200000000000031e+00 5.865440000000000431e+00 4.009520000000000195e+00 4.034229999999999983e+00 2.278620000000000090e+00 4.153749999999999609e+00 2.010149999999999881e+00 5.830610000000000070e+00 4.118039999999999701e+00 1.961580000000000101e+00 1.142460000000000031e+00 7.122239999999999682e+00 1.127000000000000050e-02 4.715139999999999887e+00 7.099750000000000227e+00 5.888250000000000206e+00 1.011370000000000102e+00 7.096930000000000405e+00 4.001319999999999766e+00 4.631269999999999776e+00 7.230610000000000426e+00
2.604000000000000065e-02 2.413769999999999971e+00 1.551930000000000032e+00 -1.954709999999999948e+00 5.860739999999999839e+00 1.583879999999999955e+00 4.040650000000000297e+00 2.312110000000000110e+00 1.579180000000000028e+00 2.040770000000000195e+00 5.864600000000000257e+00 1.613720000000000043e+00 -5.575999999999999707e-02 -1.634999999999999995e-02 5.848980000000000068e+00 5.975430000000000241e+00 3.388700000000000045e+00 5.844190000000000218e+00 -1.345999999999999974e-02 6.960250000000000270e+00 5.723889999999999922e+00 1.926120000000000054e+00 3.523930000000000007e+00 5.787270000000000358e+00 2.061659999999999826e+00 1.098279999999999923e+00 2.440900000000000014e-01 1.023099999999999982e-01 4.657630000000000159e+00 2.420700000000000074e-01 6.096390000000000420e+00 1.098470000000000057e+00 2.387799999999999923e-01 4.065949999999999953e+00 4.650909999999999656e+00 2.917399999999999993e-01 -8.032999999999999863e-02 2.288110000000000088e+00 3.998870000000000147e+00 -1.930279999999999996e+00 5.867680000000000007e+00 4.007139999999999702e+00 4.036419999999999675e+00 2.275949999999999918e+00 4.158760000000000012e+00 2.010079999999999867e+00 5.830199999999999605e+00 4.121920000000000250e+00 1.964320000000000066e+00 1.146679999999999922e+00 7.118170000000000108e+00 1.369000000000000078e-02 4.721689999999999721e+00 7.094339999999999868e+00 5.883589999999999876e+00 1.005600000000000049e+00 7.091680000000000206e+00 4.001979999999999649e+00 4.633309999999999818e+00 7.233430000000000248e+00
2.732000000000000053e-02 2.419249999999999901e+00 1.547169999999999934e+00 -1.954919999999999991e+00 5.862219999999999764e+00 1.580869999999999997e+00 4.040420000000000122e+00 2.311609999999999943e+00 1.578929999999999945e+00 2.038060000000000205e+00 5.866270000000000095e+00 1.614780000000000104e+00 -5.299000000000000238e-02 -1.447000000000000022e-02 5.854940000000000033e+00 5.973449999999999704e+00 3.383080000000000087e+00 5.850530000000000008e+00 -1.581000000000000114e-02 6.958809999999999718e+00 5.719879999999999853e+00 1.923240000000000061e+00 3.527779999999999916e+00 5.788490000000000357e+00 2.062879999999999825e+00 1.093229999999999924e+00 2.438299999999999912e-01 1.046399999999999969e-01 4.655710000000000015e+00 2.420899999999999996e-01 6.099070000000000213e+00 1.093769999999999909e+00 2.392299999999999982e-01 4.063769999999999882e+00 4.648150000000000226e+00 2.955099999999999949e-01 -8.332000000000000517e-02 2.286329999999999973e+00 3.996030000000000193e+00 -1.925440000000000040e+00 5.869830000000000325e+00 4.005359999999999587e+00 4.038529999999999731e+00 2.273350000000000204e+00 4.163669999999999760e+00 2.010149999999999881e+00 5.829740000000000144e+00 4.125910000000000188e+00 1.967039999999999900e+00 1.151040000000000063e+00 7.114049999999999763e+00 1.583999999999999991e-02 4.728100000000000414e+00 7.088989999999999903e+00 5.879080000000000084e+00 9.999500000000000055e-01 7.086560000000000414e+00 4.002690000000000303e+00 4.635430000000000383e+00 7.236060000000000159e+00
2.863999999999999879e-02 2.424640000000000128e+00 1.541979999999999906e+00 -1.955130000000000035e+00 5.863660000000000316e+00 1.577369999999999939e+00 4.040250000000000341e+00 2.311059999999999892e+00 1.578589999999999938e+00 2.035379999999999967e+00 5.867939999999999934e+00 1.615699999999999914e+00 -5.015000000000000013e-02 -1.271000000000000081e-02 5.860979999999999634e+00 5.971449999999999925e+00 3.377499999999999947e+00 5.857029999999999959e+00 -1.830000000000000029e-02 6.957410000000000316e+00 5.715659999999999741e+00 1.920490000000000030e+00 3.531600000000000072e+00 5.789670000000000094e+00 2.064039999999999875e+00 1.088260000000000005e+00 2.437000000000000000e-01 1.068999999999999950e-01 4.653920000000000279e+00 2.421300000000000119e-01 6.101729999999999876e+00 1.089129999999999932e+00 2.398800000000000099e-01 4.061580000000000190e+00 4.645369999999999777e+00 2.995300000000000185e-01 -8.631999999999999396e-02 2.284520000000000106e+00 3.993689999999999962e+00 -1.920679999999999943e+00 5.871909999999999741e+00 4.004159999999999719e+00 4.040560000000000151e+00 2.270809999999999995e+00 4.168470000000000120e+00 2.010400000000000187e+00 5.829229999999999912e+00 4.130010000000000403e+00 1.969740000000000046e+00 1.155529999999999946e+00 7.109869999999999912e+00 1.770000000000000046e-02 4.734350000000000058e+00 7.083739999999999704e+00 5.874740000000000073e+00 9.944199999999999706e-01 7.081599999999999895e+00 4.003470000000000084e+00 4.637620000000000076e+00 7.238489999999999647e+00
2.999999999999999889e-02 2.429920000000000080e+00 1.536370000000000013e+00 -1.955370000000000053e+00 5.865059999999999718e+00 1.573360000000000092e+00 4.040149999999999686e+00 2.310459999999999958e+00 1.578170000000000073e+00 2.032750000000000057e+00 5.869629999999999903e+00 1.616479999999999917e+00 -4.723999999999999727e-02 -1.105000000000000079e-02 5.867099999999999760e+00 5.969450000000000145e+00 3.371929999999999872e+00 5.863710000000000200e+00 -2.093000000000000069e-02 6.956050000000000288e+00 5.711210000000000342e+00 1.917859999999999898e+00 3.535410000000000164e+00 5.790799999999999947e+00 2.065160000000000107e+00 1.083380000000000010e+00 2.436800000000000077e-01 1.090799999999999964e-01 4.652280000000000193e+00 2.421699999999999964e-01 6.104359999999999786e+00 1.084549999999999903e+00 2.407499999999999918e-01 4.059389999999999610e+00 4.642559999999999576e+00 3.037799999999999945e-01 -8.933000000000000662e-02 2.282669999999999977e+00 3.991849999999999898e+00 -1.915990000000000082e+00 5.873890000000000278e+00 4.003540000000000099e+00 4.042519999999999669e+00 2.268359999999999932e+00 4.173149999999999693e+00 2.010810000000000208e+00 5.828680000000000305e+00 4.134210000000000385e+00 1.972420000000000062e+00 1.160190000000000055e+00 7.105660000000000309e+00 1.924999999999999975e-02 4.740459999999999674e+00 7.078579999999999650e+00 5.870560000000000223e+00 9.889999999999999902e-01 7.076819999999999666e+00 4.004310000000000258e+00 4.639890000000000292e+00 7.240750000000000242e+00
3.141999999999999654e-02 2.435080000000000133e+00 1.530350000000000099e+00 -1.955629999999999979e+00 5.866419999999999746e+00 1.568859999999999921e+00 4.040130000000000443e+00 2.309790000000000010e+00 1.577679999999999971e+00 2.030139999999999834e+00 5.871330000000000382e+00 1.617140000000000022e+00 -4.426000000000000073e-02 -9.499999999999999764e-03 5.873319999999999652e+00 5.967439999999999856e+00 3.366379999999999928e+00 5.870589999999999975e+00 -2.372000000000000150e-02 6.954749999999999766e+00 5.706489999999999618e+00 1.915350000000000108e+00 3.539200000000000124e+00 5.791890000000000427e+00 2.066230000000000011e+00 1.078610000000000069e+00 2.437600000000000044e-01 1.111899999999999972e-01 4.650789999999999758e+00 2.421999999999999986e-01 6.106969999999999565e+00 1.080039999999999889e+00 2.418299999999999894e-01 4.057170000000000165e+00 4.639710000000000001e+00 3.082799999999999985e-01 -9.235999999999999766e-02 2.280780000000000030e+00 3.990499999999999936e+00 -1.911380000000000079e+00 5.875779999999999781e+00 4.003479999999999706e+00 4.044400000000000439e+00 2.265989999999999949e+00 4.177679999999999616e+00 2.011420000000000208e+00 5.828070000000000306e+00 4.138490000000000002e+00 1.975090000000000012e+00 1.165019999999999945e+00 7.101399999999999935e+00 2.046999999999999861e-02 4.746400000000000396e+00 7.073550000000000004e+00 5.866550000000000153e+00 9.836899999999999533e-01 7.072230000000000238e+00 4.005219999999999558e+00 4.642260000000000275e+00 7.242829999999999657e+00