-7.246776169999999695e+01
-7.246333484999999541e+01
-7.245421740000000455e+01
-7.244075850000000116e+01
-7.242334823000000199e+01
-7.240248508999999899e+01
-7.237869417999999655e+01
-7.235254747999999836e+01
-7.232456507000000556e+01
-7.229524091999999769e+01
-7.226503784999999880e+01
-7.223433319999999469e+01
-7.220343610999999839e+01
-7.217252439000000663e+01
-7.214173522000000105e+01
-7.211107287999999471e+01
-7.208050360999999384e+01
-7.204986458000000482e+01
-7.201901229999999998e+01
-7.198768515000000434e+01
-7.195565018000000634e+01
-7.192267425000000003e+01
-7.188856332999999665e+01
-7.185318078000000241e+01
-7.181644470000000524e+01
-7.177841107000000420e+01
-7.173919660999999337e+01
-7.169906761999999389e+01
-7.165841378999999733e+01
-7.161773445999999410e+01
-7.157761782000000039e+01
-7.153874152999999581e+01
-7.150181216999999378e+01
-7.146756175000000155e+01
-7.143661455000000160e+01
-7.140955451000000664e+01
-7.138685198000000298e+01
-7.136882602999999392e+01
-7.135567283999999688e+01
-7.134740148000000204e+01
-7.134385964999999885e+01
-7.134475186999999607e+01
-7.134961300000000506e+01
-7.135789715999999316e+01
-7.136897564999999588e+01
-7.138218686000000446e+01
-7.139685033000000658e+01
-7.141228526000000443e+01
-7.142785301000000686e+01
-7.144299734999999885e+01
-7.145720941000000437e+01
-7.147008207000000368e+01
-7.148133629999999528e+01
-7.149079288999999449e+01
-7.149820289000000173e+01
-7.150354319999999575e+01
-7.150681244999999819e+01
-7.150809510999999929e+01
-7.150745842999999979e+01
-7.150545153999999570e+01
-7.150023984999999982e+01
-7.149432514000000083e+01
-7.148700904000000378e+01
-7.147844202999999652e+01
-7.146881501999999386e+01
-7.145816338000000201e+01
-7.144661429999999314e+01
-7.143428015000000642e+01
-7.142118508000000077e+01
-7.140736746999999696e+01
-7.139282382000000382e+01
-7.137752129999999795e+01
-7.136138642000000232e+01
-7.134433069000000671e+01
-7.132623191999999790e+01
-7.130697141000000272e+01
-7.128641813999999499e+01
-7.126445185999999410e+01
-7.124099696000000392e+01
-7.121601153000000295e+01
-7.118957125000000019e+01
-7.116175586999999325e+01
-7.113277005000000486e+01
-7.110290326999999877e+01
-7.107253577000000178e+01
-7.104211580000000481e+01
-7.101221185999999364e+01
-7.098331340999999384e+01
-7.095597372000000291e+01
-7.093069817999999316e+01
-7.090790411000000404e+01
-7.088791731999999968e+01
-7.087097172000000000e+01
-7.085719923000000620e+01
-7.084664153999999314e+01
-7.083926443000000006e+01
-7.083496676999999409e+01
-7.083358859000000507e+01
-7.083493762999999888e+01
-7.083884183000000689e+01
-7.084510742999999877e+01
-7.085352555000000052e+01
-7.086393354999999872e+01
-7.087617539999999394e+01
-7.089009726000000455e+01
-7.090556700999999862e+01
-7.092246355000000335e+01
-7.094065474999999310e+01
-7.096004872999999691e+01
-7.098043608000000404e+01
-7.100166606000000513e+01
-7.102352378999999871e+01
-7.104577532000000417e+01
-7.106814536999999632e+01
-7.109031640000000607e+01
-7.111194537999999454e+01
-7.113268033999999318e+01
-7.115217936999999893e+01
-7.117011139000000242e+01
-7.118619771000000185e+01
-7.120022403000000111e+01
-7.121205616999999677e+01
-7.122166400999999780e+01
-7.122909902000000670e+01
-7.123450250999999867e+01
-7.123811551999999381e+01
-7.124025632999999402e+01
-7.124129838000000348e+01
-7.124164919000000395e+01
-7.124174392999999839e+01
-7.124202637999999865e+01
-7.124288733000000207e+01
-7.124469562000000167e+01
-7.124777788999999473e+01
-7.125239161000000365e+01
-7.125873644000000695e+01
-7.126687327999999866e+01
-7.127684501000000239e+01
-7.128859871999999598e+01
-7.130195786000000169e+01
-7.131669139000000257e+01
-7.133245675999999946e+01
-7.134886306999999306e+01
-7.136544168000000354e+01
-7.138175517000000525e+01
-7.139719875999999488e+01
-7.141125809000000402e+01
-7.142342265000000623e+01
-7.143322933000000319e+01
-7.144029500999999982e+01
-7.144431169000000637e+01
-7.144514508999999691e+01
-7.144276209999999594e+01
-7.143729863999999452e+01
-7.142901922999999442e+01
-7.141829301999999302e+01
-7.140558620000000190e+01
-7.139143438000000685e+01
-7.137639325000000667e+01
-7.136111126999999499e+01
-7.134614150000000166e+01
-7.133207622000000470e+01
-7.131944735999999807e+01
-7.130871292999999866e+01
-7.130025548000000413e+01
-7.129436823999999717e+01
-7.129127669999999739e+01
-7.129111566999999638e+01
-7.129393179999999575e+01
-7.129969669000000465e+01
-7.130831482000000676e+01
-7.131966121000000669e+01
-7.133350368000000685e+01
-7.134960820000000581e+01
-7.136769495999999435e+01
-7.138745201000000407e+01
-7.140853481999999985e+01
-7.143061190000000238e+01
-7.145332883999999751e+01
-7.147636171000000616e+01
-7.149943278000000646e+01
-7.152226812000000677e+01
-7.154466252000000281e+01
-7.156644407000000285e+01
-7.158748472000000618e+01
-7.160768149999999821e+01
-7.162699521000000402e+01
-7.164539662999999337e+01
-7.166288077000000101e+01
-7.167946460999999658e+01
-7.169513084000000447e+01
-7.170992067000000247e+01
-7.172374616000000458e+01
-7.173671733000000472e+01
-7.174877716999999677e+01
-7.175989740999999356e+01
-7.177001534000000049e+01
-7.177908259000000157e+01
-7.178702375999999674e+01
-7.179376136000000486e+01
-7.179921235999999851e+01
-7.180329999999999302e+01
-7.180593894000000432e+01
-7.180705690000000629e+01
-7.180657915000000457e+01
-7.180444862000000228e+01
-7.180061018000000672e+01
-7.179505869000000473e+01
-7.178773925000000133e+01
-7.177867634999999780e+01
-7.176789415999999733e+01
-7.175545698999999900e+01
-7.174146915000000035e+01
-7.172604930999999340e+01
-7.170941926000000421e+01
-7.169176149999999836e+01
-7.167336152000000027e+01
-7.165452680999999302e+01
-7.163558134000000166e+01
-7.161688436999999396e+01
-7.159879809000000250e+01
-7.158172496000000251e+01
-7.156591038000000538e+01
-7.155163555000000031e+01
-7.153908361000000582e+01
-7.152834375000000477e+01
-7.151940179000000342e+01
-7.151213866000000507e+01
-7.150636450000000366e+01
-7.150183015999999725e+01
-7.149827544000000046e+01
-7.149544493000000500e+01
-7.149313979000000074e+01
-7.149122676999999726e+01
-7.148967168999999444e+01
-7.148854475999999636e+01
-7.148809158999999624e+01
-7.148844705000000488e+01
-7.148981207999999299e+01
-7.149242857000000129e+01
-7.149703861999999788e+01
-7.150376984999999763e+01
-7.151292678999999453e+01
-7.152471525999999358e+01
-7.153930712000000369e+01
-7.155681916000000342e+01
-7.157721847999999909e+01
-7.160041667999999504e+01
-7.162624037999999871e+01
-7.165440520999999308e+01
-7.168453959999999370e+01
-7.171619115999999394e+01
-7.174882576999999628e+01
-7.178184122000000400e+01
-7.181462091000000214e+01
-7.184649179999999546e+01
-7.187674669000000449e+01
-7.190474593000000425e+01
-7.192987988999999516e+01
-7.195161242000000357e+01
-7.196948340000000144e+01
-7.198325837000000149e+01
-7.199263845000000117e+01
-7.199758214000000578e+01
-7.199814535000000149e+01
-7.199448938000000453e+01
-7.198690568000000667e+01
-7.197572830999999383e+01
-7.196137213999999460e+01
-7.194429793000000473e+01
-7.192498451000000159e+01
-7.190391499999999780e+01
-7.188157332000000110e+01
-7.185842436000000077e+01
-7.183490229999999599e+01
-7.181141171000000156e+01
-7.178832438000000593e+01
-7.176595518000000595e+01
-7.174458461000000398e+01
-7.172443536000000108e+01
-7.170567893999999853e+01
-7.168842517999999586e+01
-7.167274193000000082e+01
-7.165860474000000124e+01
-7.164594425999999316e+01
-7.163460374000000286e+01
-7.162436830000000043e+01
-7.161493242000000237e+01
-7.160591547999999307e+01
-7.159689206000000183e+01
-7.158736747999999750e+01
-7.157686576000000400e+01
-7.156495963999999788e+01
-7.155129807999999514e+01
-7.153566537999999753e+01
-7.151804798999999946e+01
-7.149858767000000626e+01
-7.147769929000000388e+01
-7.145593438000000219e+01
-7.143404384000000107e+01
-7.141284649000000684e+01
-7.139321202000000710e+01
-7.137592523000000710e+01
-7.136178646000000469e+01
-7.135130295000000444e+01
-7.134491640000000245e+01
-7.134289458000000650e+01
-7.134524582999999609e+01
-7.135190282000000650e+01
-7.136267788000000678e+01
-7.137723497999999722e+01
-7.139518130999999812e+01
-7.141604766000000382e+01
-7.143935559999999896e+01
-7.146458431000000644e+01
-7.149120014999999739e+01
-7.151868321000000606e+01
-7.154649134999999660e+01
-7.157411326000000429e+01
-7.160104115999999408e+01
-7.162678415000000598e+01
-7.165088772000000006e+01
-7.167292410000000302e+01
-7.169249392000000398e+01
-7.170926812999999811e+01
-7.172293018999999958e+01
-7.173322709999999347e+01
-7.173995564999999885e+01
-7.174296531999999615e+01
-7.174217351000000065e+01
-7.173756539000000032e+01
-7.172919803999999999e+01
-7.171720492999999408e+01
-7.170177130999999804e+01
-7.168314714999999637e+01
-7.166161506999999631e+01
-7.163753939000000059e+01
-7.161133898999999303e+01
-7.158364530000000059e+01
-7.155472528999999327e+01
-7.152492626999999459e+01
-7.149492268000000195e+01
-7.146515585000000215e+01
-7.143614019000000326e+01
-7.140836543999999719e+01
-7.138227924999999630e+01
-7.135832498999999984e+01
-7.133695265000000063e+01
-7.131846907999999985e+01
-7.130318038000000058e+01
-7.129130401999999833e+01
-7.128294664999999952e+01
-7.127816436999999894e+01
-7.127681644000000460e+01
-7.127865368999999873e+01
-7.128328627999999867e+01
-7.129019119000000160e+01
-7.129874214000000165e+01
-7.130823410000000706e+01
-7.131788380000000416e+01
-7.132696808999999405e+01
-7.133487309999999582e+01
-7.134107260000000394e+01
-7.134523065999999858e+01
-7.134720178000000601e+01
-7.134705012999999951e+01
-7.134499551000000395e+01
-7.134142576000000702e+01
-7.133681867999999326e+01
-7.133172876999999801e+01
-7.132672349000000622e+01
-7.132235541999999384e+01
-7.131914274000000376e+01
-7.131756446999999355e+01
-7.131804330999999308e+01
-7.132093439000000501e+01
-7.132653270000000134e+01
-7.133508229999999628e+01
-7.134678418999999394e+01
-7.136170063000000141e+01
-7.137990139000000056e+01
-7.140146396000000095e+01
-7.142613604999999666e+01
-7.145380308000000014e+01
-7.148418186000000674e+01
-7.151688900000000615e+01
-7.155140604999999709e+01
-7.158718048999999439e+01
-7.162343228999999667e+01
-7.165934378999999410e+01
-7.169400792000000422e+01
-7.172648239000000103e+01
-7.175581535000000599e+01
-7.178111110999999767e+01
-7.180161753000000147e+01
-7.181676199000000338e+01
-7.182622193999999638e+01
-7.182990995000000112e+01
-7.182801689999999439e+01
-7.182102174000000616e+01
-7.180959966000000350e+01
-7.179458053000000461e+01
-7.177690916000000243e+01
-7.175758535999999310e+01
-7.173760556999999949e+01
-7.171788893999999459e+01
-7.169928136999999424e+01
-7.168251888000000349e+01
-7.166818107999999654e+01
-7.165675192000000493e+01
-7.164854182000000549e+01
-7.164373894999999948e+01
-7.164239700000000255e+01
-7.164444708000000617e+01
-7.164970033999999544e+01
-7.165784471000000622e+01
-7.166844924999999478e+01
-7.168102571999999384e+01
-7.169494156000000373e+01
-7.170951884000000121e+01
-7.172401202999999725e+01
-7.173765509999999779e+01
-7.174967474999999695e+01
-7.175933648000000176e+01
-7.176600433000000123e+01
-7.176910856000000649e+01
-7.176826242999999295e+01
-7.176330529000000524e+01
-7.175425740000000019e+01
-7.174129367000000457e+01
-7.172482057999999938e+01
-7.170538539000000355e+01
-7.168363567999999475e+01
-7.166028393999999935e+01
-7.163605209000000684e+01
-7.161163165000000674e+01
-7.158766452000000413e+01
-7.156470521999999335e+01
-7.154323356000000445e+01
-7.152361725000000092e+01
-7.150617762000000255e+01
-7.149112094000000184e+01
-7.147857611000000588e+01
-7.146863745999999651e+01
-7.146131895999999983e+01
-7.145658656999999891e+01
-7.145434161000000017e+01
-7.145444933000000276e+01
-7.145671613999999749e+01
-7.146084338000000002e+01
-7.146658804999999859e+01
-7.147352302999999552e+01
-7.148123040999999489e+01
-7.148921070999999472e+01
-7.149694429999999556e+01
-7.150382071999999312e+01
-7.150925639999999817e+01
-7.151266445000000260e+01
-7.151348638000000335e+01
-7.151125930999999980e+01
-7.150564404000000707e+01
-7.149647009999999625e+01
-7.148374388000000579e+01
-7.146767171000000474e+01
-7.144864169999999604e+01
-7.142720108000000323e+01
-7.140407276000000536e+01
-7.137997647999999629e+01
-7.135575763999999310e+01
-7.133227302999999608e+01
-7.131159537999999998e+01
-7.128896776000000557e+01
-7.127065605999999320e+01
-7.125496538999999530e+01
-7.124210041000000615e+01
-7.123215664999999319e+01
-7.122515452999999752e+01
-7.122092365000000314e+01
-7.121923569999999870e+01
-7.121987260999999592e+01
-7.122246624000000281e+01
-7.122670137000000068e+01
-7.123210186999999394e+01
-7.123818541999999354e+01
-7.124449717999999621e+01
-7.125051163999999915e+01
-7.125580130999999540e+01
-7.125984726000000080e+01
-7.126227018000000157e+01
-7.126273987999999804e+01
-7.126100857999999505e+01
-7.125690797000000032e+01
-7.125041163000000211e+01
-7.124160575999999878e+01
-7.123070864000000313e+01
-7.121803527000000145e+01
-7.120399915000000135e+01
-7.118909191000000192e+01
-7.117383022999999298e+01
-7.115877204000000233e+01
-7.114445292000000620e+01
-7.113136656999999730e+01
-7.111993870999999956e+01
-7.111054205000000650e+01
-7.110339903999999933e+01
-7.109871733999999321e+01
-7.109651395000000207e+01
-7.109675454000000627e+01
-7.109930278999999587e+01
-7.110396670999999458e+01
-7.111045889000000386e+01
-7.111846719999999777e+01
-7.112766625000000431e+01
-7.113772269000000392e+01
-7.114830684999999733e+01
-7.115908734999999297e+01
-7.116984737999999311e+01
-7.118036859999999422e+01
-7.119053164999999694e+01
-7.120028430000000697e+01
-7.120961898999999562e+01
-7.121858202999999321e+01
-7.122728198999999449e+01
-7.123584121999999752e+01
-7.124441658000000643e+01
-7.125318384999999921e+01
-7.126229573000000528e+01
-7.127190493000000515e+01
-7.128213501999999835e+01
-7.129307317999999327e+01
-7.130478635999999426e+01
-7.131735009999999875e+01
-7.133074213999999813e+01
-7.134495230000000277e+01
-7.135997177000000136e+01
-7.137570243000000403e+01
-7.139214350999999681e+01
-7.140934135999999910e+01
-7.142710497999999575e+01
-7.144540471999999909e+01
-7.146375969999999711e+01
-7.148288277000000335e+01
-7.150243684000000144e+01
-7.152246033000000125e+01
-7.154283762000000024e+01
-7.156353357999999787e+01
-7.158455433000000312e+01
-7.160582841000000087e+01
-7.162723393000000272e+01
-7.164866485999999668e+01
-7.166995393999999919e+01
-7.169089492999999891e+01
-7.171129636000000573e+01
-7.173095071000000189e+01
-7.174956896000000484e+01
-7.176683671000000686e+01
-7.178248134000000391e+01
-7.179623101999999335e+01
-7.180788372000000663e+01
-7.181717435000000194e+01
-7.182390212999999335e+01
-7.182794726999999568e+01
-7.182941544000000533e+01
-7.182792473000000655e+01
-7.182372241999999574e+01
-7.181682141000000286e+01
-7.180742970999999386e+01
-7.179572301000000323e+01
-7.178201276000000064e+01
-7.176657869000000289e+01
-7.174975688000000673e+01
-7.173190116000000671e+01
-7.171340782999999419e+01
-7.169464030999999693e+01
-7.167599031999999681e+01
-7.165787143999999387e+01
-7.164058785999999657e+01
-7.162450855000000161e+01
-7.160991986000000509e+01
-7.159709091000000569e+01
-7.158623982000000296e+01
-7.157750552999999627e+01
-7.157097817000000362e+01
-7.156666633999999760e+01
-7.156450103000000240e+01
-7.156436268999999584e+01
-7.156599036999999441e+01
-7.156911487000000704e+01
-7.157346157000000630e+01
-7.157866758000000118e+01
-7.158444353000000149e+01
-7.159053772000000038e+01
-7.159678019000000404e+01
-7.160309528000000512e+01
-7.160951903000000129e+01
-7.161616585999999529e+01
-7.162320551999999907e+01
-7.163086377999999854e+01
-7.163937122000000102e+01
-7.164892991000000677e+01
-7.165968807999999513e+01
-7.167173730000000376e+01
-7.168513231999999391e+01
-7.169986036000000240e+01
-7.171581885000000511e+01
-7.173286631999999940e+01
-7.175083035000000109e+01
-7.176950048000000493e+01
-7.178863674000000117e+01
-7.180798552999999629e+01
-7.182725983000000269e+01
-7.184619035000000054e+01
-7.186449971000000403e+01
-7.188192284999999515e+01
-7.189820020999999883e+01
-7.191307127000000321e+01
-7.192628919000000565e+01
-7.193761062999999467e+01
-7.194681047999999635e+01
-7.195367616999999427e+01
-7.195800552000000039e+01
-7.195962294000000270e+01
-7.195837466000000404e+01
-7.195415121000000624e+01
-7.194686251000000254e+01
-7.193644947999999317e+01
-7.192290536999999517e+01
-7.190626432000000534e+01
-7.188662311000000216e+01
-7.186415153000000089e+01
-7.183905724999999620e+01
-7.181165513999999916e+01
-7.178229527000000587e+01
-7.175136847000000273e+01
-7.171931867000000693e+01
-7.168667213999999888e+01
-7.165398940000000039e+01
-7.162178423000000294e+01
-7.159061244999999474e+01
-7.156102520000000311e+01
-7.153353255999999760e+01
-7.150863687999999740e+01
-7.148673773000000153e+01
-7.146815078000000199e+01
-7.145315487999999959e+01
-7.144189563999999848e+01
-7.143440560000000517e+01
-7.143057885000000340e+01
-7.143023408000000529e+01
-7.143304406000000029e+01
-7.143857128999999873e+01
-7.144628393000000699e+01
-7.145558975000000146e+01
-7.146591112000000123e+01
-7.147651059999999745e+01
-7.148679970999999966e+01
-7.149625752999999406e+01
-7.150443244000000220e+01
-7.151098134000000073e+01
-7.151570193000000586e+01
-7.151851329000000135e+01
-7.151944912000000443e+01
-7.151866918000000339e+01
-7.151642352000000358e+01
-7.151303029999999694e+01
-7.150884114000000125e+01
-7.150420884000000399e+01
-7.149944447000000025e+01
-7.149498130000000629e+01
-7.149108003000000622e+01
-7.148798283000000708e+01
-7.148590516999999522e+01
-7.148499665999999308e+01
-7.148534419000000639e+01
-7.148697151999999733e+01
-7.148985421000000429e+01
-7.149389917999999966e+01
-7.149895261999999718e+01
-7.150479574000000582e+01
-7.151116338999999300e+01
-7.151773789000000647e+01
-7.152417375999999649e+01
-7.153005890999999394e+01
-7.153498134000000164e+01
-7.153850436999999829e+01
-7.154016934999999933e+01
-7.153956648999999857e+01
-7.153630726999999467e+01
-7.153006874999999809e+01
-7.152061091999999576e+01
-7.150779656000000273e+01
-7.149159351000000129e+01
-7.147210216000000571e+01
-7.144954348000000266e+01
-7.142428515999999661e+01
-7.139677020000000596e+01
-7.136755784999999719e+01
-7.133726461999999913e+01
-7.130652759000000174e+01
-7.127608429999999373e+01
-7.124661623999999449e+01
-7.121875950000000444e+01
-7.119313198999999770e+01
-7.117026409000000342e+01
-7.115061862999999676e+01
-7.113455759000000000e+01
-7.112229277999999510e+01
-7.111394045999999491e+01
-7.110947409000000619e+01
-7.110870968000000403e+01
-7.111132560000000069e+01
-7.111691503000000125e+01
-7.112487835000000302e+01
-7.113454898999999898e+01
-7.114521487000000377e+01
-7.115608134000000007e+01
-7.116635134000000562e+01
-7.117528948000000355e+01
-7.118224888000000306e+01
-7.118673948999999368e+01
-7.118840029000000413e+01
-7.118713221999999519e+01
-7.118296295999999757e+01
-7.117614994999999567e+01
-7.116712031999999510e+01
-7.115645847999999773e+01
-7.114470217999999591e+01
-7.113278603000000544e+01
-7.112129459999999881e+01
-7.111097055999999839e+01
-7.110255899000000568e+01
-7.109643878999999345e+01
-7.109330581999999765e+01
-7.109350654000000702e+01
-7.109730084000000261e+01
-7.110492705999999430e+01
-7.111642740000000629e+01
-7.113177491999999802e+01
-7.115086793000000398e+01
-7.117342557999999997e+01
-7.119913008000000332e+01
-7.122755456999999524e+01
-7.125819604999999513e+01
-7.129048011999999801e+01
-7.132377732999999864e+01
-7.135743888000000368e+01
-7.139076586999999563e+01
-7.142308366000000319e+01
-7.145378110000000049e+01
-7.148228108000000702e+01
-7.150812177000000247e+01
-7.153089327000000708e+01
-7.155032257000000584e+01
-7.156626042000000609e+01
-7.157865058000000147e+01
-7.158755365999999754e+01
-7.159312601000000598e+01
-7.159560279999999466e+01
-7.159526787999999442e+01
-7.159247648000000197e+01
-7.158760979999999563e+01
-7.158106042999999374e+01
-7.157324013000000207e+01
-7.156455626000000336e+01
-7.155543742999999779e+01
-7.154627834999999436e+01
-7.153748122999999737e+01
-7.152943655999999351e+01
-7.152249354999999298e+01
-7.151700003000000549e+01
-7.151329216000000599e+01
-7.151166125000000306e+01
-7.151241086000000280e+01
-7.151571432999999445e+01
-7.152173729999999807e+01
-7.153054998000000353e+01
-7.154211073000000454e+01
-7.155626469000000611e+01
-7.157270796999999618e+01
-7.159101112000000455e+01
-7.161058696000000623e+01
-7.163071816000000069e+01
-7.165056212999999730e+01
-7.166920786999999393e+01
-7.168575162999999861e+01
-7.169936495000000320e+01
-7.170937214999999298e+01
-7.171530722999999341e+01
-7.171687217000000203e+01
-7.171424743999999407e+01
-7.170772676999999362e+01
-7.169788662000000556e+01
-7.168523905000000696e+01
-7.167059430000000475e+01
-7.165476741999999888e+01
-7.163861454999999978e+01
-7.162277423000000454e+01
-7.160792026999999393e+01
-7.159463282000000106e+01
-7.158337269000000447e+01
-7.157451631000000702e+01
-7.156836162000000456e+01
-7.156509493999999449e+01
-7.156485523000000626e+01
-7.156773028000000636e+01
-7.157367883999999947e+01
-7.158264690000000030e+01
-7.159449225999999555e+01
-7.160903620999999930e+01
-7.162603135999999893e+01
-7.164513816999999563e+01
-7.166592753000000471e+01
-7.168788331000000369e+01
-7.171047722999999507e+01
-7.173322987000000239e+01
-7.175527728000000138e+01
-7.177603424000000132e+01
-7.179486090999999703e+01
-7.181120973000000163e+01
-7.182466178999999329e+01
-7.183495200999999497e+01
-7.184198976000000414e+01
-7.184590296000000365e+01
-7.184699290000000360e+01
-7.184570445999999322e+01
-7.184256039000000271e+01
-7.183892201999999827e+01
-7.183342512999999485e+01
-7.183017984999999328e+01
-7.182478684000000158e+01
-7.182194173000000603e+01
-7.182065649000000462e+01
-7.182128081999999836e+01
-7.182404936999999734e+01
-7.182909963000000175e+01
-7.183650634999999340e+01
-7.184627002999999945e+01
-7.185829957999999351e+01
-7.187247268999999505e+01
-7.188857444999999302e+01
-7.190637368000000151e+01
-7.192555260000000317e+01
-7.194572777000000485e+01
-7.196649266000000011e+01
-7.198735741999999505e+01
-7.200779986000000576e+01
-7.202725968000000023e+01
-7.204514550999999756e+01
-7.206085629000000381e+01
-7.207381338999999798e+01
-7.208347917000000393e+01
-7.208936099000000297e+01
-7.209106110999999828e+01
-7.208828305000000114e+01
-7.208086292999999500e+01
-7.206880436999999517e+01
-7.205219499999999755e+01
-7.203130393000000709e+01
-7.200648449000000539e+01
-7.197821351000000334e+01
-7.194701458999999488e+01
-7.191346661000000040e+01
-7.187815071999999361e+01
-7.184165693999999291e+01
-7.180452305000000024e+01
-7.176726893999999390e+01
-7.173034425999999542e+01
-7.169414799999999843e+01
-7.165901635999999542e+01
-7.162523683999999946e+01
-7.159304285999999706e+01
-7.156258323000000132e+01
-7.153400691000000222e+01
-7.150739516999999523e+01
-7.148278337000000704e+01
-7.146016446000000144e+01
-7.143949562000000242e+01
-7.142069607999999903e+01
-7.140361685000000591e+01
-7.138807595999999478e+01
-7.137384864999999934e+01
-7.136067968000000405e+01
-7.134822957000000088e+01
-7.133616329999999550e+01
-7.132414153999999940e+01
-7.131181936000000121e+01
-7.129890299999999570e+01
-7.128518305999999427e+01
-7.127061392000000239e+01
-7.125526632999999777e+01
-7.123944423000000370e+01
-7.122356947000000105e+01
-7.120823210999999731e+01
-7.119411254999999983e+01
-7.118191955000000348e+01
-7.117235252000000401e+01
-7.116601588000000334e+01
-7.116344913999999733e+01
-7.116491392000000360e+01
-7.117057377000000429e+01
-7.118037873999999476e+01
-7.119413147000000208e+01
-7.121146674000000587e+01
-7.123190026999999702e+01
-7.125488278999999636e+01
-7.127979356999999538e+01
-7.130600022000000138e+01
-7.133285533000000100e+01
-7.135975123999999425e+01
-7.138610495999999728e+01
-7.141138909000000012e+01
-7.143515453999999920e+01
-7.145700634000000662e+01
-7.147661544000000333e+01
-7.149375324999999748e+01
-7.150824663000000214e+01
-7.152001436999999839e+01
-7.152904130999999666e+01
-7.153534267000000568e+01
-7.153904878999999539e+01
-7.154031111000000465e+01
-7.153929689000000280e+01
-7.153623176000000683e+01
-7.153133981999999946e+01
-7.152486233000000482e+01
-7.151700904999999864e+01
-7.150802136999999448e+01
-7.149802984999999467e+01
-7.148717166999999506e+01
-7.147550085000000308e+01
-7.146304757000000052e+01
-7.144980995000000235e+01
-7.143571570999999665e+01
-7.142065146999999570e+01
-7.140458012999999937e+01
-7.138740574000000549e+01
-7.136912101000000064e+01
-7.134975715999999579e+01
-7.132946581999999580e+01
-7.130834608000000685e+01
-7.128671504000000425e+01
-7.126492120000000341e+01
-7.124340037000000336e+01
-7.122263739000000271e+01
-7.120316115999999340e+01
-7.118553212000000485e+01
-7.117030386999999791e+01
-7.115798660000000098e+01
-7.114912470999999528e+01
-7.114397391999999343e+01
-7.114287038000000507e+01
-7.114599956000000702e+01
-7.115340242999999987e+01
-7.116503219999999885e+01
-7.118063612999999634e+01
-7.119988354999999558e+01
-7.122236075000000710e+01
-7.124747861999999543e+01
-7.127466363000000626e+01
-7.130328101000000629e+01
-7.133270942000000048e+01
-7.136234305000000688e+01
-7.139166577000000302e+01
-7.142020798999999442e+01
-7.144763014000000112e+01
-7.147369037999999364e+01
-7.149825253000000203e+01
-7.152128098000000023e+01
-7.154283019000000365e+01
-7.156297442000000331e+01
-7.158187519999999893e+01
-7.159968503999999712e+01
-7.161656408000000340e+01
-7.163267276000000550e+01
-7.164813573000000702e+01
-7.166304521000000705e+01
-7.167745248999999319e+01
-7.169137304999999571e+01
-7.170477429999999686e+01
-7.171758006000000307e+01
-7.172964806999999610e+01
-7.174083423999999809e+01
-7.175091543000000627e+01
-7.175966012000000660e+01
-7.176679024000000595e+01
-7.177201680000000295e+01
-7.177504466999999977e+01
-7.177556551000000695e+01
-7.177328092999999853e+01
-7.176791491000000178e+01
-7.175922839999999781e+01
-7.174704472000000521e+01
-7.173124823000000561e+01
-7.171182127999999523e+01
-7.168884502999999597e+01
-7.166253794000000710e+01
-7.163321306999999649e+01
-7.160130970999999533e+01
-7.156739996999999676e+01
-7.153214332000000297e+01
-7.149628065000000277e+01
-7.146061631000000602e+01
-7.142597700000000316e+01
-7.139315177999999662e+01
-7.136288473000000465e+01
