3.184499999999999831e-02 8.179300000000000459e-02 -5.864989999999999926e-01 3.443299999999999833e-02 1.131810000000000038e-01 -5.752059999999999951e-01 1.488100000000000013e-02 1.333070000000000088e-01 -4.347889999999999810e-01 -6.635000000000000273e-03 8.130500000000000227e-02 -5.983089999999999797e-01 -2.732199999999999906e-02 -1.021849999999999981e-01 3.741380000000000261e-01 -7.740999999999999617e-03 -9.365900000000000614e-02 3.797209999999999752e-01 -5.031100000000000155e-02 -3.927200000000000135e-02 3.667449999999999877e-01 -1.207100000000000013e-02 -8.113199999999999579e-02 3.732139999999999902e-01 -1.202359999999999957e-01 -1.389370000000000049e-01 2.304859999999999964e-01 -2.750299999999999967e-02 -1.065190000000000026e-01 2.754260000000000042e-01 2.671600000000000016e-02 -1.117159999999999959e-01 2.375160000000000049e-01 -4.721800000000000302e-02 -9.704500000000000626e-02 2.277679999999999982e-01 7.792999999999999580e-03 -1.347500000000000087e-02 2.657510000000000150e-01 5.141999999999999869e-03 -4.623999999999999638e-03 2.777419999999999889e-01 -1.913099999999999870e-02 -2.995899999999999952e-02 2.196529999999999871e-01 1.961800000000000002e-02 -2.924200000000000063e-02 3.139910000000000201e-01 4.518500000000000294e-02 9.667000000000000592e-02 -3.301339999999999830e-01 2.061599999999999891e-02 6.316099999999999492e-02 -3.323690000000000255e-01 1.932400000000000090e-02 9.823199999999999987e-02 -3.288780000000000037e-01 -4.911999999999999700e-03 1.129679999999999990e-01 -3.545079999999999898e-01
3.621100000000000013e-02 3.746800000000000130e-02 -6.771549999999999514e-01 3.454000000000000126e-02 9.272400000000000087e-02 -6.828790000000000138e-01 3.214800000000000296e-02 1.174889999999999962e-01 -4.490529999999999800e-01 1.512900000000000009e-02 7.208199999999999330e-02 -6.350390000000000201e-01 -2.073699999999999849e-02 -1.320270000000000055e-01 3.430520000000000236e-01 -2.115999999999999825e-03 -5.483899999999999886e-02 3.663109999999999977e-01 -6.444700000000000428e-02 -2.733500000000000166e-02 3.259130000000000082e-01 2.414799999999999933e-02 -9.369500000000000051e-02 3.439949999999999952e-01 -1.302659999999999929e-01 -1.067810000000000009e-01 2.536229999999999873e-01 -4.961299999999999738e-02 -8.306299999999999795e-02 2.817930000000000157e-01 1.251599999999999935e-02 -8.165899999999999548e-02 2.698490000000000055e-01 -3.833799999999999708e-02 -8.618099999999999372e-02 2.520709999999999895e-01 1.646299999999999847e-02 -1.022299999999999945e-02 3.710800000000000209e-01 -2.436200000000000171e-02 -2.569600000000000009e-02 3.970850000000000213e-01 -3.600799999999999834e-02 -1.182099999999999991e-02 1.894049999999999900e-01 4.165300000000000252e-02 -3.296700000000000325e-02 3.271839999999999749e-01 2.874000000000000166e-02 9.760199999999999432e-02 -3.153610000000000024e-01 -2.725299999999999945e-02 2.165699999999999917e-02 -3.036329999999999862e-01 5.272400000000000003e-02 1.290020000000000056e-01 -2.805840000000000001e-01 3.694999999999999934e-03 1.123500000000000054e-01 -3.797130000000000227e-01
4.024699999999999805e-02 -6.275000000000000196e-03 -7.622160000000000046e-01 3.363000000000000017e-02 7.269699999999999773e-02 -7.870139999999999914e-01 4.834200000000000302e-02 1.014570000000000055e-01 -4.584960000000000147e-01 3.561500000000000082e-02 6.312900000000000456e-02 -6.652449999999999752e-01 -1.432199999999999966e-02 -1.605330000000000090e-01 3.108310000000000239e-01 3.226000000000000135e-03 -1.761499999999999871e-02 3.520849999999999813e-01 -7.919600000000000251e-02 -1.514199999999999921e-02 2.815590000000000037e-01 6.042700000000000154e-02 -1.062059999999999949e-01 3.122190000000000243e-01 -1.390619999999999912e-01 -7.445100000000000329e-02 2.748470000000000080e-01 -7.077100000000000057e-02 -5.915499999999999925e-02 2.860119999999999885e-01 -1.554999999999999959e-03 -5.184799999999999826e-02 3.004350000000000076e-01 -2.937599999999999933e-02 -7.547500000000000042e-02 2.749059999999999837e-01 2.461899999999999852e-02 -7.629999999999999630e-03 4.758370000000000100e-01 -5.293799999999999895e-02 -4.591200000000000142e-02 5.159599999999999742e-01 -5.288199999999999845e-02 6.588000000000000106e-03 1.579969999999999986e-01 6.371400000000000674e-02 -3.680400000000000338e-02 3.379090000000000149e-01 1.231800000000000082e-02 9.854000000000000259e-02 -2.978509999999999769e-01 -7.573699999999999877e-02 -2.038699999999999887e-02 -2.706470000000000264e-01 8.669499999999999429e-02 1.596909999999999996e-01 -2.291710000000000136e-01 1.230000000000000017e-02 1.114300000000000013e-01 -4.017979999999999885e-01
4.375400000000000122e-02 -5.011100000000000276e-02 -8.399619999999999864e-01 3.181300000000000100e-02 5.299800000000000344e-02 -8.857699999999999463e-01 6.371300000000000574e-02 8.552700000000000580e-02 -4.634960000000000191e-01 5.563699999999999896e-02 5.414499999999999869e-02 -6.888670000000000071e-01 -8.963000000000000481e-03 -1.887669999999999904e-01 2.803590000000000249e-01 8.914000000000000049e-03 1.946900000000000019e-02 3.386319999999999886e-01 -9.421200000000000407e-02 -2.432000000000000134e-03 2.382150000000000101e-01 9.768400000000000694e-02 -1.200949999999999934e-01 2.818910000000000027e-01 -1.465720000000000078e-01 -4.191899999999999793e-02 2.918040000000000078e-01 -9.087800000000000045e-02 -3.475600000000000217e-02 2.857720000000000260e-01 -1.544500000000000040e-02 -2.228000000000000119e-02 3.267240000000000144e-01 -2.043400000000000077e-02 -6.481499999999999762e-02 2.937690000000000023e-01 3.224300000000000083e-02 -5.714000000000000329e-03 5.741819999999999702e-01 -8.050599999999999423e-02 -6.529999999999999694e-02 6.285330000000000084e-01 -6.950299999999999534e-02 2.508399999999999866e-02 1.210200000000000026e-01 8.565899999999999903e-02 -4.063300000000000245e-02 3.412399999999999878e-01 -3.956000000000000315e-03 9.943799999999999861e-02 -2.795050000000000034e-01 -1.245969999999999994e-01 -6.275200000000000222e-02 -2.353679999999999939e-01 1.210090000000000054e-01 1.899079999999999935e-01 -1.767489999999999895e-01 2.067099999999999840e-02 1.102339999999999987e-01 -4.225380000000000247e-01
4.705899999999999667e-02 -9.382100000000000162e-02 -9.139380000000000281e-01 2.906299999999999856e-02 3.343200000000000338e-02 -9.827730000000000077e-01 7.846100000000000296e-02 6.929200000000000637e-02 -4.673010000000000219e-01 7.515900000000000358e-02 4.509099999999999914e-02 -7.104770000000000252e-01 -4.244000000000000376e-03 -2.159709999999999963e-01 2.455910000000000037e-01 1.470100000000000053e-02 5.565900000000000014e-02 3.207160000000000011e-01 -1.096810000000000007e-01 1.115299999999999972e-02 1.885129999999999861e-01 1.359110000000000040e-01 -1.341469999999999885e-01 2.456609999999999905e-01 -1.527759999999999951e-01 -9.180000000000000659e-03 3.068400000000000016e-01 -1.098650000000000043e-01 -9.710999999999999147e-03 2.834420000000000273e-01 -2.910599999999999993e-02 7.030999999999999923e-03 3.512040000000000162e-01 -1.148700000000000068e-02 -5.424099999999999755e-02 3.111670000000000269e-01 3.940400000000000152e-02 -4.348000000000000302e-03 6.703240000000000309e-01 -1.071079999999999949e-01 -8.386399999999999411e-02 7.387690000000000090e-01 -8.597200000000000675e-02 4.379500000000000060e-02 8.405899999999999483e-02 1.074390000000000067e-01 -4.449000000000000177e-02 3.425389999999999824e-01 -2.000899999999999901e-02 1.003269999999999995e-01 -2.583409999999999873e-01 -1.735579999999999901e-01 -1.053830000000000044e-01 -1.959529999999999883e-01 1.556790000000000118e-01 2.195120000000000127e-01 -1.215669999999999945e-01 2.885300000000000017e-02 1.086970000000000020e-01 -4.398770000000000180e-01
4.990800000000000097e-02 -1.376300000000000023e-01 -9.799999999999999822e-01 2.557399999999999951e-02 1.413599999999999926e-02 -1.073213999999999890e+00 9.239500000000000490e-02 5.315600000000000186e-02 -4.682430000000000203e-01 9.429700000000000581e-02 3.597500000000000003e-02 -7.268350000000000088e-01 -2.410000000000000033e-04 -2.420579999999999954e-01 2.102749999999999897e-01 2.082499999999999976e-02 9.105000000000000593e-02 3.018259999999999832e-01 -1.250769999999999937e-01 2.534000000000000141e-02 1.376699999999999868e-01 1.740099999999999980e-01 -1.490809999999999913e-01 2.081600000000000117e-01 -1.579309999999999881e-01 2.365799999999999847e-02 3.202200000000000046e-01 -1.277939999999999909e-01 1.592299999999999965e-02 2.794139999999999957e-01 -4.254000000000000142e-02 3.593199999999999866e-02 3.741120000000000001e-01 -2.693000000000000081e-03 -4.383700000000000097e-02 3.273400000000000198e-01 4.612800000000000233e-02 -3.474999999999999790e-03 7.630169999999999453e-01 -1.327260000000000106e-01 -1.016900000000000026e-01 8.451840000000000463e-01 -1.022649999999999948e-01 6.265800000000000536e-02 4.687500000000000000e-02 1.290419999999999900e-01 -4.839100000000000346e-02 3.412580000000000058e-01 -3.572100000000000275e-02 1.013099999999999973e-01 -2.345099999999999962e-01 -2.225509999999999988e-01 -1.481590000000000129e-01 -1.525050000000000017e-01 1.906289999999999929e-01 2.485839999999999994e-01 -6.386300000000000310e-02 3.685999999999999693e-02 1.069289999999999963e-01 -4.540150000000000019e-01
5.233800000000000258e-02 -1.818269999999999886e-01 -1.034890000000000088e+00 2.120500000000000163e-02 -5.256000000000000255e-03 -1.153580999999999968e+00 1.055650000000000061e-01 3.678300000000000319e-02 -4.631089999999999929e-01 1.128870000000000012e-01 2.674599999999999894e-02 -7.345949999999999980e-01 3.199000000000000021e-03 -2.671680000000000166e-01 1.769219999999999959e-01 2.701500000000000082e-02 1.257300000000000084e-01 2.846960000000000046e-01 -1.408059999999999867e-01 4.015400000000000219e-02 8.733000000000000485e-02 2.119999999999999940e-01 -1.642720000000000014e-01 1.713850000000000096e-01 -1.619669999999999999e-01 5.675700000000000189e-02 3.292910000000000004e-01 -1.446900000000000130e-01 4.229600000000000026e-02 2.709210000000000229e-01 -5.580199999999999744e-02 6.449399999999999578e-02 3.928360000000000185e-01 5.955000000000000224e-03 -3.356100000000000055e-02 3.397060000000000080e-01 5.253000000000000030e-02 -3.096999999999999927e-03 8.466900000000000537e-01 -1.573579999999999979e-01 -1.188499999999999973e-01 9.419589999999999907e-01 -1.183059999999999945e-01 8.152800000000000324e-02 5.725000000000000054e-03 1.505060000000000009e-01 -5.226200000000000290e-02 3.333800000000000097e-01 -5.099700000000000066e-02 1.024639999999999995e-01 -2.099989999999999912e-01 -2.715679999999999761e-01 -1.912069999999999881e-01 -1.069190000000000002e-01 2.256489999999999885e-01 2.769110000000000182e-01 -5.629000000000000323e-03 4.450400000000000189e-02 1.048329999999999956e-01 -4.666359999999999952e-01
5.436799999999999966e-02 -2.266400000000000081e-01 -1.080008999999999997e+00 1.611900000000000138e-02 -2.481099999999999972e-02 -1.224917000000000034e+00 1.182730000000000031e-01 2.000499999999999848e-02 -4.542809999999999904e-01 1.311350000000000016e-01 1.735099999999999837e-02 -7.358970000000000233e-01 6.276999999999999594e-03 -2.913089999999999846e-01 1.414940000000000087e-01 3.350100000000000300e-02 1.601059999999999983e-01 2.656529999999999725e-01 -1.566279999999999895e-01 5.566200000000000314e-02 3.359199999999999686e-02 2.500120000000000120e-01 -1.795579999999999954e-01 1.315600000000000103e-01 -1.649160000000000070e-01 9.025500000000000189e-02 3.354219999999999979e-01 -1.604790000000000105e-01 6.957099999999999396e-02 2.594199999999999839e-01 -6.889699999999999991e-02 9.281999999999999973e-02 4.086389999999999745e-01 1.439499999999999981e-02 -2.331799999999999845e-02 3.494849999999999901e-01 5.870899999999999730e-02 -2.977000000000000045e-03 9.225839999999999597e-01 -1.811039999999999872e-01 -1.354160000000000086e-01 1.029957000000000011e+00 -1.340629999999999877e-01 1.004560000000000036e-01 -3.674499999999999988e-02 1.717120000000000035e-01 -5.601099999999999829e-02 3.212200000000000055e-01 -6.572200000000000264e-02 1.035289999999999960e-01 -1.836619999999999919e-01 -3.203230000000000244e-01 -2.343270000000000075e-01 -5.823600000000000304e-02 2.605160000000000253e-01 3.043879999999999919e-01 5.399400000000000033e-02 5.184300000000000019e-02 1.023720000000000047e-01 -4.768339999999999801e-01
5.566100000000000214e-02 -2.713550000000000129e-01 -1.112511000000000028e+00 1.066899999999999966e-02 -4.414799999999999974e-02 -1.283543000000000101e+00 1.301769999999999872e-01 3.537000000000000213e-03 -4.416510000000000158e-01 1.489280000000000048e-01 7.744000000000000015e-03 -7.312239999999999851e-01 8.413000000000000339e-03 -3.139739999999999753e-01 1.073110000000000036e-01 4.007600000000000051e-02 1.932869999999999866e-01 2.473930000000000018e-01 -1.719769999999999910e-01 7.178199999999999859e-02 -1.870199999999999987e-02 2.870070000000000121e-01 -1.951400000000000079e-01 9.272600000000000287e-02 -1.670480000000000020e-01 1.239809999999999940e-01 3.376790000000000069e-01 -1.752479999999999871e-01 9.759600000000000219e-02 2.442139999999999866e-01 -8.186300000000000521e-02 1.207190000000000069e-01 4.205789999999999806e-01 2.249599999999999864e-02 -1.320400000000000046e-02 3.556300000000000017e-01 6.478000000000000425e-02 -2.899999999999999800e-03 9.877930000000000321e-01 -2.041850000000000054e-01 -1.514890000000000125e-01 1.105609000000000064e+00 -1.495170000000000110e-01 1.194530000000000036e-01 -8.208999999999999631e-02 1.925090000000000134e-01 -5.961899999999999838e-02 3.030160000000000076e-01 -7.985599999999999643e-02 1.045319999999999999e-01 -1.569399999999999962e-01 -3.682549999999999990e-01 -2.773700000000000054e-01 -8.163000000000000117e-03 2.949410000000000087e-01 3.308670000000000222e-01 1.130450000000000066e-01 5.856100000000000194e-02 9.953499999999999848e-02 -4.859979999999999856e-01
5.638200000000000156e-02 -3.173710000000000142e-01 -1.131629999999999914e+00 4.389999999999999805e-03 -6.402599999999999958e-02 -1.329171000000000102e+00 1.415450000000000041e-01 -1.339500000000000066e-02 -4.241789999999999727e-01 1.665520000000000056e-01 -2.265000000000000086e-03 -7.185979999999999590e-01 9.979999999999999288e-03 -3.351660000000000195e-01 7.400400000000000034e-02 4.709300000000000291e-02 2.259430000000000049e-01 2.290669999999999928e-01 -1.871309999999999918e-01 8.849500000000000421e-02 -7.053199999999999747e-02 3.229969999999999786e-01 -2.108339999999999936e-01 5.440099999999999797e-02 -1.680000000000000104e-01 1.583710000000000118e-01 3.364579999999999793e-01 -1.889599999999999891e-01 1.269180000000000030e-01 2.251749999999999863e-01 -9.457699999999999441e-02 1.485730000000000106e-01 4.292679999999999829e-01 3.042900000000000119e-02 -3.029000000000000008e-03 3.590499999999999803e-01 7.055799999999999572e-02 -3.144000000000000093e-03 1.044070000000000054e+00 -2.265449999999999964e-01 -1.671779999999999933e-01 1.170997000000000066e+00 -1.644440000000000068e-01 1.382940000000000003e-01 -1.287230000000000041e-01 2.130140000000000089e-01 -6.310300000000000631e-02 2.803849999999999953e-01 -9.327499999999999680e-02 1.056769999999999932e-01 -1.274349999999999927e-01 -4.160249999999999782e-01 -3.203039999999999776e-01 4.574700000000000294e-02 3.291490000000000249e-01 3.559289999999999954e-01 1.743740000000000012e-01 6.498600000000000210e-02 9.631399999999999684e-02 -4.913509999999999822e-01
5.656699999999999923e-02 -3.644979999999999887e-01 -1.137545999999999946e+00 -2.278000000000000077e-03 -8.425399999999999556e-02 -1.361012000000000111e+00 1.523490000000000122e-01 -3.044600000000000084e-02 -4.033320000000000238e-01 1.838919999999999999e-01 -1.269699999999999995e-02 -6.996850000000000014e-01 1.099600000000000057e-02 -3.552020000000000177e-01 4.008799999999999863e-02 5.443499999999999728e-02 2.581479999999999886e-01 2.097990000000000133e-01 -2.019400000000000084e-01 1.059709999999999958e-01 -1.232300000000000062e-01 3.582179999999999809e-01 -2.264909999999999979e-01 1.495699999999999981e-02 -1.682579999999999909e-01 1.933229999999999948e-01 3.316169999999999951e-01 -2.017309999999999937e-01 1.572999999999999954e-01 2.026509999999999978e-01 -1.072449999999999931e-01 1.762130000000000085e-01 4.343960000000000043e-01 3.797899999999999887e-02 7.072000000000000161e-03 3.590820000000000123e-01 7.649999999999999856e-02 -3.086999999999999900e-03 1.088667000000000051e+00 -2.487149999999999916e-01 -1.827129999999999865e-01 1.222310000000000008e+00 -1.790910000000000002e-01 1.573289999999999966e-01 -1.772839999999999971e-01 2.331759999999999944e-01 -6.635299999999999532e-02 2.524140000000000272e-01 -1.060210000000000041e-01 1.067079999999999973e-01 -9.748199999999999921e-02 -4.627069999999999794e-01 -3.630760000000000098e-01 1.008040000000000047e-01 3.625800000000000134e-01 3.799199999999999799e-01 2.348050000000000137e-01 7.078900000000000470e-02 9.267899999999999749e-02 -4.958989999999999787e-01
5.610600000000000309e-02 -4.131199999999999872e-01 -1.130103000000000080e+00 -9.367999999999999591e-03 -1.050040000000000001e-01 -1.378597000000000072e+00 1.626249999999999918e-01 -4.766900000000000304e-02 -3.796510000000000162e-01 2.008449999999999958e-01 -2.355499999999999955e-02 -6.750490000000000101e-01 1.125999999999999918e-02 -3.741050000000000209e-01 5.951999999999999826e-03 6.231199999999999933e-02 2.896580000000000266e-01 1.894569999999999865e-01 -2.159639999999999893e-01 1.237960000000000033e-01 -1.751800000000000024e-01 3.922289999999999943e-01 -2.423909999999999954e-01 -2.439799999999999955e-02 -1.679259999999999919e-01 2.288610000000000089e-01 3.235720000000000263e-01 -2.136450000000000016e-01 1.887989999999999946e-01 1.770059999999999967e-01 -1.197349999999999942e-01 2.035790000000000100e-01 4.364259999999999806e-01 4.512900000000000245e-02 1.719800000000000148e-02 3.563290000000000068e-01 8.229200000000000403e-02 -2.939999999999999905e-03 1.122694000000000081e+00 -2.705230000000000135e-01 -1.980830000000000091e-01 1.260648999999999909e+00 -1.932719999999999994e-01 1.762039999999999995e-01 -2.262069999999999914e-01 2.528569999999999984e-01 -6.946599999999999997e-02 2.208229999999999915e-01 -1.179629999999999984e-01 1.077189999999999953e-01 -6.597300000000000386e-02 -5.083509999999999973e-01 -4.052000000000000046e-01 1.578189999999999871e-01 3.949929999999999830e-01 4.021089999999999942e-01 2.954709999999999837e-01 7.600400000000000211e-02 8.866899999999999782e-02 -4.980029999999999735e-01
5.507399999999999796e-02 -4.631219999999999781e-01 -1.107599999999999918e+00 -1.645900000000000141e-02 -1.262169999999999959e-01 -1.379407999999999967e+00 1.725589999999999902e-01 -6.497500000000000497e-02 -3.516580000000000261e-01 2.174149999999999971e-01 -3.467499999999999749e-02 -6.435030000000000472e-01 1.109300000000000043e-02 -3.915029999999999899e-01 -2.682199999999999862e-02 7.097000000000000530e-02 3.211060000000000025e-01 1.701419999999999877e-01 -2.292220000000000091e-01 1.425140000000000018e-01 -2.250560000000000060e-01 4.252159999999999829e-01 -2.582329999999999903e-01 -6.227699999999999902e-02 -1.666159999999999863e-01 2.652880000000000238e-01 3.123830000000000218e-01 -2.244819999999999871e-01 2.217550000000000077e-01 1.482819999999999971e-01 -1.320570000000000077e-01 2.309180000000000121e-01 4.354520000000000057e-01 5.195899999999999824e-02 2.738799999999999915e-02 3.508600000000000052e-01 8.837799999999999823e-02 -2.263999999999999953e-03 1.144824999999999982e+00 -2.923339999999999828e-01 -2.133799999999999863e-01 1.284030999999999922e+00 -2.069219999999999948e-01 1.951680000000000081e-01 -2.762919999999999821e-01 2.720859999999999945e-01 -7.217999999999999416e-02 1.846500000000000086e-01 -1.290080000000000116e-01 1.085740000000000038e-01 -3.321999999999999953e-02 -5.526919999999999611e-01 -4.470040000000000124e-01 2.164439999999999975e-01 4.263839999999999852e-01 4.227549999999999919e-01 3.558379999999999876e-01 8.060100000000000597e-02 8.416200000000000070e-02 -4.984190000000000009e-01
5.318200000000000011e-02 -5.145129999999999981e-01 -1.069627000000000105e+00 -2.369900000000000131e-02 -1.482420000000000126e-01 -1.362829000000000068e+00 1.820090000000000041e-01 -8.260900000000000187e-02 -3.191669999999999785e-01 2.333800000000000041e-01 -4.629699999999999788e-02 -6.044110000000000316e-01 1.033599999999999970e-02 -4.076159999999999783e-01 -5.865700000000000081e-02 8.007899999999999741e-02 3.517669999999999964e-01 1.513410000000000033e-01 -2.412489999999999912e-01 1.615699999999999914e-01 -2.723229999999999817e-01 4.567209999999999881e-01 -2.741720000000000268e-01 -9.897999999999999854e-02 -1.648499999999999965e-01 3.025419999999999776e-01 2.977449999999999819e-01 -2.346300000000000052e-01 2.559569999999999901e-01 1.163099999999999967e-01 -1.443180000000000018e-01 2.581470000000000153e-01 4.310769999999999880e-01 5.842900000000000177e-02 3.760199999999999654e-02 3.422600000000000087e-01 9.472600000000000464e-02 -1.028000000000000051e-03 1.154147999999999952e+00 -3.144480000000000053e-01 -2.288789999999999991e-01 1.291276000000000090e+00 -2.201639999999999986e-01 2.141939999999999955e-01 -3.279449999999999865e-01 2.908529999999999727e-01 -7.460899999999999477e-02 1.436820000000000042e-01 -1.392220000000000124e-01 1.093110000000000054e-01 4.640000000000000027e-04 -5.956850000000000200e-01 -4.882500000000000173e-01 2.759119999999999906e-01 4.564570000000000016e-01 4.417360000000000175e-01 4.151710000000000123e-01 8.447699999999999654e-02 7.925100000000000200e-02 -4.971690000000000276e-01
5.036800000000000305e-02 -5.673679999999999835e-01 -1.018226000000000075e+00 -3.088099999999999873e-02 -1.709680000000000089e-01 -1.330704000000000109e+00 1.909970000000000001e-01 -1.002920000000000061e-01 -2.843899999999999761e-01 2.488930000000000031e-01 -5.838100000000000234e-02 -5.605620000000000047e-01 8.966999999999999277e-03 -4.221610000000000085e-01 -9.092000000000000082e-02 8.937499999999999611e-02 3.815870000000000095e-01 1.317230000000000067e-01 -2.516740000000000088e-01 1.810529999999999917e-01 -3.176930000000000032e-01 4.865740000000000065e-01 -2.901690000000000103e-01 -1.350159999999999971e-01 -1.624390000000000001e-01 3.405810000000000226e-01 2.781390000000000251e-01 -2.438909999999999967e-01 2.914860000000000229e-01 7.959600000000000009e-02 -1.562860000000000082e-01 2.851730000000000098e-01 4.218669999999999920e-01 6.443899999999999628e-02 4.803099999999999731e-02 3.291240000000000276e-01 1.013359999999999955e-01 8.189999999999999581e-04 1.150536000000000003e+00 -3.368180000000000063e-01 -2.444820000000000049e-01 1.282089999999999952e+00 -2.327929999999999999e-01 2.330079999999999929e-01 -3.810879999999999823e-01 3.089419999999999944e-01 -7.659399999999999542e-02 9.784400000000000042e-02 -1.484280000000000044e-01 1.097309999999999952e-01 3.409800000000000331e-02 -6.369359999999999467e-01 -5.286210000000000075e-01 3.350420000000000065e-01 4.848759999999999737e-01 4.586049999999999849e-01 4.725030000000000063e-01 8.754499999999999782e-02 7.374999999999999611e-02 -4.951180000000000025e-01
4.678700000000000220e-02 -6.223539999999999628e-01 -9.552920000000000300e-01 -3.785399999999999876e-02 -1.948110000000000119e-01 -1.284729999999999928e+00 1.998429999999999929e-01 -1.183850000000000041e-01 -2.490420000000000134e-01 2.640489999999999782e-01 -7.101799999999999780e-02 -5.132109999999999728e-01 7.328999999999999578e-03 -4.347770000000000246e-01 -1.263499999999999901e-01 9.941099999999999937e-02 4.110639999999999850e-01 1.082430000000000059e-01 -2.605199999999999738e-01 2.012400000000000022e-01 -3.644430000000000169e-01 5.149200000000000443e-01 -3.058890000000000220e-01 -1.740899999999999948e-01 -1.594929999999999959e-01 3.798989999999999867e-01 2.572110000000000229e-01 -2.524020000000000152e-01 3.286800000000000277e-01 4.190699999999999981e-02 -1.682210000000000094e-01 3.124049999999999883e-01 4.115469999999999962e-01 7.014399999999999802e-02 5.864500000000000268e-02 3.150009999999999755e-01 1.081929999999999975e-01 3.382000000000000024e-03 1.138832000000000066e+00 -3.598939999999999917e-01 -2.602820000000000134e-01 1.260893000000000042e+00 -2.448009999999999908e-01 2.519790000000000085e-01 -4.317670000000000119e-01 3.264880000000000004e-01 -7.827699999999999936e-02 5.156399999999999872e-02 -1.565590000000000037e-01 1.099490000000000051e-01 6.955699999999999383e-02 -6.762059999999999738e-01 -5.679929999999999701e-01 3.954079999999999817e-01 5.116359999999999797e-01 4.733769999999999922e-01 5.294370000000000465e-01 8.999400000000000455e-02 6.779899999999999816e-02 -4.905180000000000096e-01
4.229200000000000320e-02 -6.789789999999999992e-01 -8.785500000000000531e-01 -4.451499999999999901e-02 -2.195219999999999949e-01 -1.222147000000000094e+00 2.082600000000000007e-01 -1.365520000000000067e-01 -2.106179999999999997e-01 2.786569999999999880e-01 -8.415799999999999670e-02 -4.606180000000000274e-01 5.024999999999999953e-03 -4.457889999999999908e-01 -1.594089999999999951e-01 1.102230000000000015e-01 4.402490000000000014e-01 8.591999999999999638e-02 -2.670950000000000268e-01 2.217250000000000054e-01 -4.059840000000000115e-01 5.411019999999999719e-01 -3.215589999999999837e-01 -2.102269999999999972e-01 -1.559840000000000115e-01 4.203279999999999794e-01 2.331679999999999864e-01 -2.600770000000000026e-01 3.673390000000000266e-01 1.425999999999999967e-03 -1.799669999999999881e-01 3.394630000000000147e-01 3.982289999999999996e-01 7.535000000000000031e-02 6.944000000000000172e-02 2.981690000000000174e-01 1.155209999999999987e-01 6.849000000000000053e-03 1.115653000000000006e+00 -3.839069999999999983e-01 -2.764719999999999955e-01 1.224024000000000001e+00 -2.561410000000000076e-01 2.708169999999999744e-01 -4.822949999999999737e-01 3.433680000000000065e-01 -7.941700000000000148e-02 2.364999999999999915e-03 -1.636569999999999969e-01 1.098429999999999962e-01 1.066580000000000028e-01 -7.134009999999999518e-01 -6.064610000000000278e-01 4.565190000000000081e-01 5.364349999999999952e-01 4.859700000000000131e-01 5.855749999999999567e-01 9.155599999999999850e-02 6.133000000000000257e-02 -4.836050000000000071e-01
3.697899999999999798e-02 -7.373429999999999707e-01 -7.885290000000000354e-01 -5.077899999999999775e-02 -2.452870000000000050e-01 -1.143874999999999975e+00 2.164040000000000130e-01 -1.548920000000000019e-01 -1.688000000000000056e-01 2.928069999999999840e-01 -9.790799999999999503e-02 -4.024530000000000052e-01 2.439000000000000196e-03 -4.548989999999999978e-01 -1.910260000000000014e-01 1.218339999999999979e-01 4.694150000000000267e-01 6.404100000000000070e-02 -2.713329999999999909e-01 2.424790000000000001e-01 -4.430319999999999814e-01 5.650220000000000242e-01 -3.369400000000000173e-01 -2.442620000000000069e-01 -1.519220000000000015e-01 4.618880000000000208e-01 2.053069999999999895e-01 -2.670139999999999736e-01 4.072330000000000116e-01 -4.224100000000000077e-02 -1.914389999999999981e-01 3.666269999999999807e-01 3.811990000000000101e-01 8.026400000000000201e-02 8.044999999999999374e-02 2.779010000000000091e-01 1.232359999999999983e-01 1.119200000000000056e-02 1.080732000000000026e+00 -4.089160000000000017e-01 -2.932569999999999899e-01 1.171586999999999934e+00 -2.667769999999999864e-01 2.897049999999999903e-01 -5.333769999999999900e-01 3.594999999999999862e-01 -8.002900000000000291e-02 -5.032299999999999968e-02 -1.695740000000000025e-01 1.093879999999999991e-01 1.437829999999999941e-01 -7.484030000000000404e-01 -6.437180000000000124e-01 5.164450000000000429e-01 5.590389999999999526e-01 4.962989999999999902e-01 6.392219999999999569e-01 9.229400000000000104e-02 5.418900000000000106e-02 -4.757129999999999970e-01
3.081599999999999964e-02 -7.979680000000000106e-01 -6.847729999999999650e-01 -5.668299999999999728e-02 -2.723380000000000245e-01 -1.050078999999999985e+00 2.241900000000000004e-01 -1.737440000000000095e-01 -1.241079999999999961e-01 3.062949999999999839e-01 -1.124620000000000064e-01 -3.390529999999999933e-01 -6.719999999999999628e-04 -4.621230000000000060e-01 -2.220959999999999879e-01 1.341910000000000047e-01 4.982590000000000074e-01 4.216299999999999909e-02 -2.729659999999999864e-01 2.636140000000000150e-01 -4.767120000000000246e-01 5.863049999999999651e-01 -3.515989999999999949e-01 -2.775190000000000157e-01 -1.474930000000000130e-01 5.046910000000000007e-01 1.742150000000000087e-01 -2.732700000000000129e-01 4.483539999999999748e-01 -8.842200000000000060e-02 -2.027829999999999910e-01 3.938090000000000201e-01 3.609519999999999951e-01 8.471700000000000064e-02 9.177499999999999547e-02 2.544509999999999827e-01 1.314460000000000073e-01 1.653100000000000055e-02 1.034823999999999966e+00 -4.352829999999999755e-01 -3.106650000000000245e-01 1.104049999999999976e+00 -2.766640000000000210e-01 3.085169999999999857e-01 -5.849689999999999612e-01 3.747800000000000020e-01 -8.002599999999999991e-02 -1.060070000000000040e-01 -1.742279999999999940e-01 1.084719999999999990e-01 1.807640000000000080e-01 -7.808349999999999458e-01 -6.795080000000000009e-01 5.747250000000000414e-01 5.790410000000000279e-01 5.040719999999999645e-01 6.899480000000000057e-01 9.211500000000000243e-02 4.647500000000000242e-02 -4.669920000000000182e-01