3.752753538391568444e+00 -1.113837282131486583e+00 5.147083407450369075e-01 -1.113837282131486583e+00 1.343061586553959019e+00 1.290511855343090541e+00 5.147083407450369075e-01 1.290511855343090541e+00 1.365362927744333266e-01
3.588604092855003369e+00 -1.090636859994141616e+00 5.393452255447832577e-01 -1.090636859994141616e+00 1.352641449057887524e+00 1.127333830599803965e+00 5.393452255447832577e-01 1.127333830599803965e+00 4.414797477538444648e-01
3.433280108568011357e+00 -1.070278360390324313e+00 5.618532520103234340e-01 -1.070278360390324313e+00 1.369941006589252996e+00 9.596500668579061033e-01 5.618532520103234340e-01 9.596500668579061033e-01 7.497818384546974801e-01
3.329844462611358580e+00 -1.052524095253594361e+00 5.815296902060940187e-01 -1.052524095253594361e+00 1.439955643551619424e+00 7.874605641173967330e-01 5.815296902060940187e-01 7.874605641173967330e-01 1.069348276652078766e+00
3.233157090888863827e+00 -1.037250053418852236e+00 5.994286350354398607e-01 -1.037250053418852236e+00 1.516677217693111368e+00 6.109203363346504823e-01 5.994286350354398607e-01 6.109203363346504823e-01 1.393503127958137799e+00
3.157282926375550858e+00 -1.024073867127041515e+00 6.159014514661427242e-01 -1.024073867127041515e+00 1.613819297020970378e+00 4.310834784130118669e-01 6.159014514661427242e-01 4.310834784130118669e-01 1.735133219279453076e+00
3.121919075794707066e+00 -1.012571831564072822e+00 6.301317326612984049e-01 -1.012571831564072822e+00 1.755006008486631019e+00 2.471955890981263892e-01 6.301317326612984049e-01 2.471955890981263892e-01 2.069663671398827898e+00
3.096073082135241350e+00 -1.002692275411154244e+00 6.429772225128439489e-01 -1.002692275411154244e+00 1.907333056283720518e+00 5.737583238598652213e-02 6.429772225128439489e-01 5.737583238598652213e-02 2.356274142471045607e+00
3.112928266325000859e+00 -9.942078448656039846e-01 6.549649684724521137e-01 -9.942078448656039846e-01 2.106339973476973881e+00 -1.342524204838528301e-01 6.549649684724521137e-01 -1.342524204838528301e-01 2.647514363706973128e+00
3.151712758209836540e+00 -9.867258379046073280e-01 6.662086474414639081e-01 -9.867258379046073280e-01 2.331513246506199621e+00 -3.287742672060113835e-01 6.662086474414639081e-01 -3.287742672060113835e-01 2.920297589870608057e+00
3.203001709242194739e+00 -9.793781763724681566e-01 6.770182873326278106e-01 -9.793781763724681566e-01 2.572508277349356387e+00 -5.271197915187346705e-01 6.770182873326278106e-01 -5.271197915187346705e-01 3.155991143405765698e+00
3.284342699283639089e+00 -9.722992056980442888e-01 6.877452531137253633e-01 -9.722992056980442888e-01 2.850696323458572934e+00 -7.280282132435119680e-01 6.877452531137253633e-01 -7.280282132435119680e-01 3.362418061977466177e+00
3.396262775785842347e+00 -9.653649147162365329e-01 6.983378734659653198e-01 -9.653649147162365329e-01 3.165188638150637335e+00 -9.320472483595325652e-01 6.983378734659653198e-01 -9.320472483595325652e-01 3.545768569576920992e+00
3.521968760141595212e+00 -9.580069189203390678e-01 7.089718308732383401e-01 -9.580069189203390678e-01 3.500938533393489926e+00 -1.139083888492971708e+00 7.089718308732383401e-01 -1.139083888492971708e+00 3.685177787676157113e+00
3.670451461820603889e+00 -9.502975581566601715e-01 7.198124735556771236e-01 -9.502975581566601715e-01 3.866606122216571073e+00 -1.349251810545170516e+00 7.198124735556771236e-01 -1.349251810545170516e+00 3.791041985616006471e+00
3.817032658968087855e+00 -9.429602308882792938e-01 7.319965705266925360e-01 -9.429602308882792938e-01 4.239497361406691311e+00 -1.563563772364440885e+00 7.319965705266925360e-01 -1.563563772364440885e+00 3.866358099886372024e+00
3.988354083552901663e+00 -9.347444912004444495e-01 7.449454030158211282e-01 -9.347444912004444495e-01 4.646336657042772877e+00 -1.780128603683016841e+00 7.449454030158211282e-01 -1.780128603683016841e+00 3.905256268672549158e+00
4.176065650458351541e+00 -9.251749629602744607e-01 7.588656562982281084e-01 -9.251749629602744607e-01 5.078753255480602746e+00 -1.999204661094855284e+00 7.588656562982281084e-01 -1.999204661094855284e+00 3.909813678989951580e+00
4.378183181042848204e+00 -9.142206433764946683e-01 7.733336255598241005e-01 -9.142206433764946683e-01 5.536984844786624116e+00 -2.219799855279161793e+00 7.733336255598241005e-01 -2.219799855279161793e+00 3.882107517853995660e+00
4.585560851880310373e+00 -9.011891367772999484e-01 7.894344084952288343e-01 -9.011891367772999484e-01 6.010759166785102359e+00 -2.443350648898336974e+00 7.894344084952288343e-01 -2.443350648898336974e+00 3.825785780371353972e+00
4.801670975593522073e+00 -8.863181312291308345e-01 8.063826010588127646e-01 -8.863181312291308345e-01 6.505026333816255502e+00 -2.666477737703422335e+00 8.063826010588127646e-01 -2.666477737703422335e+00 3.732395038787751584e+00
5.029396811771043474e+00 -8.686052031474339463e-01 8.252529666814373277e-01 -8.686052031474339463e-01 7.017740161655943609e+00 -2.889119116111868557e+00 8.252529666814373277e-01 -2.889119116111868557e+00 3.626737526123067212e+00
5.249805989207700918e+00 -8.484637230825405885e-01 8.462935276933012396e-01 -8.484637230825405885e-01 7.533109895281510759e+00 -3.112163530806888012e+00 8.462935276933012396e-01 -3.112163530806888012e+00 3.499522739258605242e+00
5.488661827452893327e+00 -8.252219638901624466e-01 8.691632533903812519e-01 -8.252219638901624466e-01 8.069726875194106697e+00 -3.331208585427452018e+00 8.691632533903812519e-01 -3.331208585427452018e+00 3.350574995710474013e+00
5.720748722936409791e+00 -7.985595633937926374e-01 8.954432861276946376e-01 -7.985595633937926374e-01 8.603067893495328633e+00 -3.547112023865497843e+00 8.954432861276946376e-01 -3.547112023865497843e+00 3.191086303128894297e+00
5.951233807537392728e+00 -7.685385271759809234e-01 9.251129573777248094e-01 -7.685385271759809234e-01 9.136791279555605882e+00 -3.757310948708971310e+00 9.251129573777248094e-01 -3.757310948708971310e+00 3.022141759208485823e+00
6.184963850958476783e+00 -7.342287714984817582e-01 9.582342727230213075e-01 -7.342287714984817582e-01 9.670638676780981768e+00 -3.958364050126364830e+00 9.582342727230213075e-01 -3.958364050126364830e+00 2.845126155292858172e+00
6.414591191667522452e+00 -6.955992935700203716e-01 9.947245580535182263e-01 -6.955992935700203716e-01 1.019438949831451602e+01 -4.147729099233139927e+00 9.947245580535182263e-01 -4.147729099233139927e+00 2.661217597450456829e+00
6.631052680348514805e+00 -6.521127116751660457e-01 1.034635484688006590e+00 -6.521127116751660457e-01 1.069564262764627038e+01 -4.323752613827973157e+00 1.034635484688006590e+00 -4.323752613827973157e+00 2.480274973306681563e+00
6.835929459356473004e+00 -6.039240397702929641e-01 1.077667358977496548e+00 -6.039240397702929641e-01 1.117189717294673557e+01 -4.483365317574651066e+00 1.077667358977496548e+00 -4.483365317574651066e+00 2.296314744145488085e+00
7.031195373069228260e+00 -5.511469547567423577e-01 1.124150877362253054e+00 -5.511469547567423577e-01 1.161941213073541768e+01 -4.624748380051719288e+00 1.124150877362253054e+00 -4.624748380051719288e+00 2.115578805276878693e+00
7.222647943455176467e+00 -4.944015124600110722e-01 1.174303059381199610e+00 -4.944015124600110722e-01 1.203863187435392135e+01 -4.743861104129687867e+00 1.174303059381199610e+00 -4.743861104129687867e+00 1.933385735218351664e+00
7.414875583622996480e+00 -4.351241755425004354e-01 1.229136662882648778e+00 -4.351241755425004354e-01 1.242244643033654761e+01 -4.831474992272410063e+00 1.229136662882648778e+00 -4.831474992272410063e+00 1.780076932364225151e+00
7.564763745173131326e+00 -3.730255846189786673e-01 1.286037119135754248e+00 -3.730255846189786673e-01 1.273595698997157299e+01 -4.897417929314013207e+00 1.286037119135754248e+00 -4.897417929314013207e+00 1.613095898557890706e+00
7.711675638760881135e+00 -3.081780795357536018e-01 1.343929664709654803e+00 -3.081780795357536018e-01 1.301067272345800774e+01 -4.934476599151214948e+00 1.343929664709654803e+00 -4.934476599151214948e+00 1.454557958242073124e+00
7.834250341197873446e+00 -2.427828584733396078e-01 1.402204578042611782e+00 -2.427828584733396078e-01 1.322139869575315352e+01 -4.942764678685358071e+00 1.402204578042611782e+00 -4.942764678685358071e+00 1.299626675977896051e+00
7.937034928537755718e+00 -1.785657434793697929e-01 1.459425396472224357e+00 -1.785657434793697929e-01 1.337082181543416581e+01 -4.921941137212418660e+00 1.459425396472224357e+00 -4.921941137212418660e+00 1.146989600268058185e+00
8.020783802034879173e+00 -1.168908573699376091e-01 1.514651701996487798e+00 -1.168908573699376091e-01 1.345974815507419109e+01 -4.872078314578702773e+00 1.514651701996487798e+00 -4.872078314578702773e+00 9.954789593078728904e-01
8.080112810271181445e+00 -6.010407801817321122e-02 1.565992324347637243e+00 -6.010407801817321122e-02 1.348571815989875411e+01 -4.794137297313734614e+00 1.565992324347637243e+00 -4.794137297313734614e+00 8.299653909552142661e-01
8.102104123548807380e+00 -1.016891553815034953e-02 1.613323252360572724e+00 -1.016891553815034953e-02 1.343208333099326701e+01 -4.691466386875193351e+00 1.613323252360572724e+00 -4.691466386875193351e+00 6.818133857164709877e-01
8.114019529662106933e+00 3.260460215738247153e-02 1.652386769366882113e+00 3.260460215738247153e-02 1.332991879947888236e+01 -4.564985332737569124e+00 1.652386769366882113e+00 -4.564985332737569124e+00 5.443780119950669683e-01
8.097887743935428873e+00 6.685235225233192302e-02 1.683151872575290309e+00 6.685235225233192302e-02 1.316930367214765063e+01 -4.418176781787402696e+00 1.683151872575290309e+00 -4.418176781787402696e+00 3.886819942127772154e-01
8.059785313458638356e+00 9.065216168765738436e-02 1.704988171896541838e+00 9.065216168765738436e-02 1.295353457913846107e+01 -4.253944662140771271e+00 1.704988171896541838e+00 -4.253944662140771271e+00 2.497894893014553919e-01
7.992281902589534859e+00 1.039110220895343162e-01 1.717740653374262960e+00 1.039110220895343162e-01 1.268237383238487759e+01 -4.076774044268770325e+00 1.717740653374262960e+00 -4.076774044268770325e+00 1.140179320451349676e-01
7.912253364045392701e+00 1.056368441371675626e-01 1.721678007866168869e+00 1.056368441371675626e-01 1.237417508432160673e+01 -3.888142727888832528e+00 1.721678007866168869e+00 -3.888142727888832528e+00 -6.179889727453159384e-03
7.812259027920247512e+00 9.663570040370315917e-02 1.716469538931994165e+00 9.663570040370315917e-02 1.202821493648557194e+01 -3.691295671821060331e+00 1.716469538931994165e+00 -3.691295671821060331e+00 -1.215309417974066164e-01
7.689611985636946478e+00 7.674224266900864233e-02 1.702228923473080524e+00 7.674224266900864233e-02 1.164504110485595945e+01 -3.488248057498318566e+00 1.702228923473080524e+00 -3.488248057498318566e+00 -2.278395130788625489e-01
7.553902433963175511e+00 4.720691684783617087e-02 1.679503877468616402e+00 4.720691684783617087e-02 1.123789178130713040e+01 -3.280870386660855953e+00 1.679503877468616402e+00 -3.280870386660855953e+00 -3.195767724611396354e-01
7.405729760196916089e+00 8.897801095881554753e-03 1.648997130854165327e+00 8.897801095881554753e-03 1.081212011446587695e+01 -3.071374191752945570e+00 1.648997130854165327e+00 -3.071374191752945570e+00 -4.017755063945216421e-01
7.244298226028778487e+00 -3.721368379357663236e-02 1.611380410774015726e+00 -3.721368379357663236e-02 1.036803613224494391e+01 -2.861020252953097476e+00 1.611380410774015726e+00 -2.861020252953097476e+00 -4.694959368025493074e-01
7.077585883080159235e+00 -8.981508632323646768e-02 1.568586224550966080e+00 -8.981508632323646768e-02 9.916821508030796650e+00 -2.651575729363978340e+00 1.568586224550966080e+00 -2.651575729363978340e+00 -5.205161969771918695e-01
6.895186127746466553e+00 -1.480383283374021863e-01 1.521058945526623241e+00 -1.480383283374021863e-01 9.450353510509424737e+00 -2.443443657272161396e+00 1.521058945526623241e+00 -2.443443657272161396e+00 -5.649741996653248055e-01
6.718966262140227741e+00 -2.109326575703117934e-01 1.469521972164066659e+00 -2.109326575703117934e-01 8.991377854212807108e+00 -2.237316432349451212e+00 1.469521972164066659e+00 -2.237316432349451212e+00 -5.843612784758634993e-01
6.450389081326213692e+00 -2.796658458266512159e-01 1.415318758751872963e+00 -2.796658458266512159e-01 8.454440512123703400e+00 -2.036769709856213861e+00 1.415318758751872963e+00 -2.036769709856213861e+00 -7.119377645718656389e-01
6.289660277093640062e+00 -3.446993676575253462e-01 1.357426213177972185e+00 -3.446993676575253462e-01 8.022065250740906706e+00 -1.835540925954929570e+00 1.357426213177972185e+00 -1.835540925954929570e+00 -7.067602984289658163e-01
6.089082551809127608e+00 -4.129365112534671423e-01 1.299719684351720694e+00 -4.129365112534671423e-01 7.549159006898123359e+00 -1.636430666124093269e+00 1.299719684351720694e+00 -1.636430666124093269e+00 -7.090131679282715149e-01
5.806068404524793003e+00 -4.883146311063824574e-01 1.239501929432206495e+00 -4.883146311063824574e-01 6.999779211244048227e+00 -1.442880240195213215e+00 1.239501929432206495e+00 -1.442880240195213215e+00 -7.381454574628708576e-01
5.558490447667610468e+00 -5.593833629720937894e-01 1.177393004244926322e+00 -5.593833629720937894e-01 6.490899395258682425e+00 -1.250817948247526123e+00 1.177393004244926322e+00 -1.250817948247526123e+00 -7.410390513151901004e-01
5.303161792991716084e+00 -6.307621227505536554e-01 1.113217226305989627e+00 -6.307621227505536554e-01 5.978381918430401676e+00 -1.061979946592423119e+00 1.113217226305989627e+00 -1.061979946592423119e+00 -7.309631441508642746e-01
4.971473263405868259e+00 -7.022855622216294114e-01 1.056089416250201918e+00 -7.022855622216294114e-01 5.384730136835842451e+00 -8.712404404057961793e-01 1.056089416250201918e+00 -8.712404404057961793e-01 -7.858484189711048007e-01
5.031536004369008275e+00 -7.514043178647478172e-01 9.926577053018615926e-01 -7.514043178647478172e-01 5.238210945270907359e+00 -6.959816613290767950e-01 9.926577053018615926e-01 -6.959816613290767950e-01 -6.959093214827688501e-01
4.885378512035613241e+00 -8.110536882775566392e-01 9.275828464159543429e-01 -8.110536882775566392e-01 4.864472296452607480e+00 -5.191107371060653675e-01 9.275828464159543429e-01 -5.191107371060653675e-01 -6.620232706193592831e-01
4.700829229840198131e+00 -8.694009414568217853e-01 8.608441710649634704e-01 -8.694009414568217853e-01 4.460299240866163473e+00 -3.469315686293144019e-01 8.608441710649634704e-01 -3.469315686293144019e-01 -6.442069999000795688e-01
4.512011896712611048e+00 -9.237385002978730775e-01 7.927413728978793817e-01 -9.237385002978730775e-01 4.065871396003781335e+00 -1.809529584075331710e-01 7.927413728978793817e-01 -1.809529584075331710e-01 -6.472246049174982252e-01
4.346477659832436835e+00 -9.819617423120389210e-01 7.216726410321681051e-01 -9.819617423120389210e-01 3.677044722098388174e+00 -1.373423653475794141e-02 7.216726410321681051e-01 -1.373423653475794141e-02 -6.880449467627155480e-01
4.171683922624839447e+00 -1.034552810577940463e+00 6.489194241738566182e-01 -1.034552810577940463e+00 3.298583314742552730e+00 1.461678265971529944e-01 6.489194241738566182e-01 1.461678265971529944e-01 -7.039907157417460981e-01
4.004196509894349276e+00 -1.085480062378758381e+00 5.738720007612063689e-01 -1.085480062378758381e+00 2.934734556340929057e+00 3.005823956734157143e-01 5.738720007612063689e-01 3.005823956734157143e-01 -7.238531706851656367e-01
3.852479183658997997e+00 -1.134102773361479466e+00 4.962410114089854107e-01 -1.134102773361479466e+00 2.591120286378023607e+00 4.506049026524082124e-01 4.962410114089854107e-01 4.506049026524082124e-01 -7.541945690794842339e-01
3.697651244032404527e+00 -1.181351027264348597e+00 4.155614142480709705e-01 -1.181351027264348597e+00 2.249541866375499577e+00 5.949952358831365196e-01 4.155614142480709705e-01 5.949952358831365196e-01 -7.997996750447865510e-01
3.543226340692383403e+00 -1.227545186263873100e+00 3.315231813657146254e-01 -1.227545186263873100e+00 1.912386511261521038e+00 7.337740638931172787e-01 3.315231813657146254e-01 7.337740638931172787e-01 -8.604928060971818171e-01
3.393152162394599269e+00 -1.272602576249986628e+00 2.445086805209728542e-01 -1.272602576249986628e+00 1.583725920956850608e+00 8.660319714716214756e-01 2.445086805209728542e-01 8.660319714716214756e-01 -9.428465539869381740e-01
3.257380605138278984e+00 -1.316357849002556035e+00 1.545695830326369868e-01 -1.316357849002556035e+00 1.273325974713066300e+00 9.926990423568947675e-01 1.545695830326369868e-01 9.926990423568947675e-01 -1.030171082744428368e+00
3.128367656379875683e+00 -1.358800670257823917e+00 6.162321479064079149e-02 -1.358800670257823917e+00 9.772183152469869905e-01 1.111377727357015344e+00 6.162321479064079149e-02 1.111377727357015344e+00 -1.134040767778929482e+00
3.002930362881838011e+00 -1.401388171205707689e+00 -3.490914297547954848e-02 -1.401388171205707689e+00 6.865464785177646245e-01 1.223545826189417651e+00 -3.490914297547954848e-02 1.223545826189417651e+00 -1.248616750067011782e+00
2.884055326870310410e+00 -1.442828568876421969e+00 -1.335186877570147534e-01 -1.442828568876421969e+00 4.071389892850704184e-01 1.328066569840690603e+00 -1.335186877570147534e-01 1.328066569840690603e+00 -1.385308056797819543e+00
2.776723663476784232e+00 -1.484454983294785313e+00 -2.345671187855047080e-01 -1.484454983294785313e+00 1.412797198394852016e-01 1.425508342817539909e+00 -2.345671187855047080e-01 1.425508342817539909e+00 -1.534173126235884421e+00
2.679364564610001054e+00 -1.525109976919870380e+00 -3.353675274837958353e-01 -1.525109976919870380e+00 -1.085097694619701902e-01 1.513804292368308602e+00 -3.353675274837958353e-01 1.513804292368308602e+00 -1.695170621326173022e+00
2.588753739977376789e+00 -1.565744302017438416e+00 -4.358682425330968058e-01 -1.565744302017438416e+00 -3.510136028138361453e-01 1.595021271244653871e+00 -4.358682425330968058e-01 1.595021271244653871e+00 -1.871493829569995437e+00
2.517602334001599385e+00 -1.605283195156628873e+00 -5.349841662387879726e-01 -1.605283195156628873e+00 -5.722908584061890958e-01 1.668704571841210793e+00 -5.349841662387879726e-01 1.668704571841210793e+00 -2.049191494893669585e+00
2.453374884743871220e+00 -1.644078021305222626e+00 -6.309378052344444265e-01 -1.644078021305222626e+00 -7.822417609194639576e-01 1.734451157871406357e+00 -6.309378052344444265e-01 1.734451157871406357e+00 -2.247692033162767444e+00
2.400659805312870265e+00 -1.681705075649130743e+00 -7.220136717361913536e-01 -1.681705075649130743e+00 -9.780760591389243697e-01 1.793005096325837044e+00 -7.220136717361913536e-01 1.793005096325837044e+00 -2.443381651689611633e+00
2.363787152223316923e+00 -1.718092018342044724e+00 -8.069509855655183639e-01 -1.718092018342044724e+00 -1.158109268071970455e+00 1.845988866614553636e+00 -8.069509855655183639e-01 1.845988866614553636e+00 -2.653001857762621540e+00
2.345257817304716053e+00 -1.752515450920884899e+00 -8.833521975305036467e-01 -1.752515450920884899e+00 -1.317949325621331713e+00 1.893485142847621594e+00 -8.833521975305036467e-01 1.893485142847621594e+00 -2.867344822373166568e+00
2.346725282758391984e+00 -1.784830693693035597e+00 -9.494191457372060938e-01 -1.784830693693035597e+00 -1.455901412530649752e+00 1.936000303949197310e+00 -9.494191457372060938e-01 1.936000303949197310e+00 -3.084137007494424765e+00
2.363745815168283748e+00 -1.815151423559837385e+00 -1.003591356358124909e+00 -1.815151423559837385e+00 -1.575944220346863656e+00 1.973730700930688142e+00 -1.003591356358124909e+00 1.973730700930688142e+00 -3.304928552690138410e+00
2.392867770439124797e+00 -1.842547556783045382e+00 -1.044670054797299352e+00 -1.842547556783045382e+00 -1.678501453884062800e+00 2.006914021858534181e+00 -1.044670054797299352e+00 2.006914021858534181e+00 -3.528107312814015462e+00
2.422496104634122016e+00 -1.867556475078089973e+00 -1.073326968199017850e+00 -1.867556475078089973e+00 -1.778413115899141861e+00 2.037451771264260358e+00 -1.073326968199017850e+00 2.037451771264260358e+00 -3.771665241069226404e+00
2.481763107287874082e+00 -1.887790963516807752e+00 -1.087257555745183124e+00 -1.887790963516807752e+00 -1.845523824745430863e+00 2.066511720952551645e+00 -1.087257555745183124e+00 2.066511720952551645e+00 -4.008361218188936981e+00
2.560127829366933394e+00 -1.904046760408586669e+00 -1.087650257767997841e+00 -1.904046760408586669e+00 -1.889857816268464275e+00 2.093949191230792817e+00 -1.087650257767997841e+00 2.093949191230792817e+00 -4.244478476538184886e+00
2.645375171109008772e+00 -1.917295286546705446e+00 -1.075486829324498794e+00 -1.917295286546705446e+00 -1.923278825262751068e+00 2.119960533110390788e+00 -1.075486829324498794e+00 2.119960533110390788e+00 -4.490382282666525171e+00
2.746382265082465857e+00 -1.926565121137885139e+00 -1.050198885907980717e+00 -1.926565121137885139e+00 -1.934408827330421632e+00 2.144122041777256182e+00 -1.050198885907980717e+00 2.144122041777256182e+00 -4.736389431432449726e+00
2.871602539041579139e+00 -1.931132865719046077e+00 -1.012561497300314306e+00 -1.931132865719046077e+00 -1.916292862962151844e+00 2.167828842838757097e+00 -1.012561497300314306e+00 2.167828842838757097e+00 -4.972196661868948375e+00
2.990611920481964781e+00 -1.932765679392854707e+00 -9.651685637048290634e-01 -1.932765679392854707e+00 -1.897412163075768987e+00 2.189685810687525436e+00 -9.651685637048290634e-01 2.189685810687525436e+00 -5.228300386326714566e+00
3.111274784123675641e+00 -1.930616152531132057e+00 -9.095805589490256748e-01 -1.930616152531132057e+00 -1.869530319455921852e+00 2.209734282378593928e+00 -9.095805589490256748e-01 2.209734282378593928e+00 -5.490925031215956764e+00
3.251273055257133837e+00 -1.924921973200317993e+00 -8.472442799590632623e-01 -1.924921973200317993e+00 -1.815161757823595678e+00 2.228108603340821059e+00 -8.472442799590632623e-01 2.228108603340821059e+00 -5.737614241389927372e+00
3.395198346618739205e+00 -1.915579798762830466e+00 -7.792344901658035949e-01 -1.915579798762830466e+00 -1.750727623290701862e+00 2.245356489553395285e+00 -7.792344901658035949e-01 2.245356489553395285e+00 -5.985161195455835248e+00
3.543929070627946487e+00 -1.903416370319331419e+00 -7.064089334611841631e-01 -1.903416370319331419e+00 -1.674068054731759680e+00 2.260475517431763226e+00 -7.064089334611841631e-01 2.260475517431763226e+00 -6.231447369343232623e+00
3.696741828821675568e+00 -1.888700378727536489e+00 -6.304830976290799471e-01 -1.888700378727536489e+00 -1.586164807203805260e+00 2.273713709306123487e+00 -6.304830976290799471e-01 2.273713709306123487e+00 -6.470034516730709839e+00
3.855372777511317572e+00 -1.871762520427711074e+00 -5.525214118365938676e-01 -1.871762520427711074e+00 -1.481778408981390127e+00 2.284440675087221262e+00 -5.525214118365938676e-01 2.284440675087221262e+00 -6.693822998416325554e+00
4.019914925070697365e+00 -1.852489118518513500e+00 -4.723585278635936691e-01 -1.852489118518513500e+00 -1.363027384134961606e+00 2.292873434313980052e+00 -4.723585278635936691e-01 2.292873434313980052e+00 -6.907463233091307941e+00
4.189469190552844502e+00 -1.831582902935507295e+00 -3.921646410993185339e-01 -1.831582902935507295e+00 -1.230221760577268508e+00 2.298278254259561670e+00 -3.921646410993185339e-01 2.298278254259561670e+00 -7.105312712743632630e+00
4.356760252271928202e+00 -1.809674263767947489e+00 -3.130455177659048904e-01 -1.809674263767947489e+00 -1.090016804168644438e+00 2.300138421736052763e+00 -3.130455177659048904e-01 2.300138421736052763e+00 -7.293106953759149746e+00
4.525942484258776766e+00 -1.787393591105089552e+00 -2.354041941499256108e-01 -1.787393591105089552e+00 -9.377310934265881137e-01 2.298794967447475912e+00 -2.354041941499256108e-01 2.298794967447475912e+00 -7.460160327411792025e+00
4.692014102854383140e+00 -1.765247263871089434e+00 -1.607391384963318681e-01 -1.765247263871089434e+00 -7.794825124960024221e-01 2.293658838359609042e+00 -1.607391384963318681e-01 2.293658838359609042e+00 -7.612301358461232681e+00
4.852091848470184487e+00 -1.743731326726344344e+00 -8.938104724538858958e-02 -1.743731326726344344e+00 -6.165008387641232046e-01 2.283696608096625003e+00 -8.938104724538858958e-02 2.283696608096625003e+00 -7.746202413977304246e+00
5.002641402900849243e+00 -1.723610515188967574e+00 -2.254936352057323318e-02 -1.723610515188967574e+00 -4.524547358651408446e-01 2.269073624878654272e+00 -2.254936352057323318e-02 2.269073624878654272e+00 -7.864488396954609328e+00
5.150132015259062612e+00 -1.705122517325399656e+00 3.953889313919028287e-02 -1.705122517325399656e+00 -2.802238960695984660e-01 2.248870139231211596e+00 3.953889313919028287e-02 2.248870139231211596e+00 -7.960648721225431323e+00
5.289065857225417666e+00 -1.688536023993355562e+00 9.715241359161730372e-02 -1.688536023993355562e+00 -1.045827492338226999e-01 2.223489187440868431e+00 9.715241359161730372e-02 2.223489187440868431e+00 -8.032978233269654211e+00
5.446880399078154689e+00 -1.669159279446575272e+00 1.532778000628516046e-01 -1.669159279446575272e+00 1.034149774291367452e-01 2.190553888843221220e+00 1.532778000628516046e-01 2.190553888843221220e+00 -8.090550416667047884e+00
5.584264101480767906e+00 -1.654515627701088398e+00 2.019728508918805232e-01 -1.654515627701088398e+00 3.019155156982342159e-01 2.150704967791282396e+00 2.019728508918805232e-01 2.150704967791282396e+00 -8.126492986018355680e+00
5.712047272851934920e+00 -1.641556460948201623e+00 2.455317726330428496e-01 -1.641556460948201623e+00 5.045910965256779068e-01 2.103291365668280566e+00 2.455317726330428496e-01 2.103291365668280566e+00 -8.136806581249121706e+00
5.831263339567486881e+00 -1.630447127408047425e+00 2.838718911762723174e-01 -1.630447127408047425e+00 7.125061490785711271e-01 2.047806703550060003e+00 2.838718911762723174e-01 2.047806703550060003e+00 -8.133478948318954238e+00
5.948515896168963479e+00 -1.621301303981967035e+00 3.167761869826450360e-01 -1.621301303981967035e+00 9.320369140957742715e-01 1.983021204049384423e+00 3.167761869826450360e-01 1.983021204049384423e+00 -8.102558831154173191e+00
6.046588059235068258e+00 -1.615028405880689411e+00 3.438622922931043879e-01 -1.615028405880689411e+00 1.146297204596253172e+00 1.911105062555493950e+00 3.438622922931043879e-01 1.911105062555493950e+00 -8.057573781014365721e+00
6.143916155310576777e+00 -1.609850939737789810e+00 3.666803466713930426e-01 -1.609850939737789810e+00 1.375077135677119422e+00 1.829836412360357434e+00 3.666803466713930426e-01 1.829836412360357434e+00 -7.982929393888288594e+00
6.235581074846546557e+00 -1.606244281686149078e+00 3.844552803356395820e-01 -1.606244281686149078e+00 1.612568851106218171e+00 1.739080908035117279e+00 3.844552803356395820e-01 1.739080908035117279e+00 -7.880413497406123291e+00
6.305812731347836042e+00 -1.603030325657323063e+00 3.979311602764404321e-01 -1.603030325657323063e+00 1.842764576321969328e+00 1.639344928503928989e+00 3.979311602764404321e-01 1.639344928503928989e+00 -7.767325649099234397e+00
6.368076670491490177e+00 -1.600302080025136409e+00 4.075833626266766041e-01 -1.600302080025136409e+00 2.077414369217540191e+00 1.531568891768797069e+00 4.075833626266766041e-01 1.531568891768797069e+00 -7.632112142085860640e+00
6.418662891588285291e+00 -1.597883862305698344e+00 4.138459264641959900e-01 -1.597883862305698344e+00 2.313376613610413024e+00 1.416837895524340585e+00 4.138459264641959900e-01 1.416837895524340585e+00 -7.466464228304344530e+00
6.468505045694484146e+00 -1.593326451988295478e+00 4.174112474608036027e-01 -1.593326451988295478e+00 2.558515684220641351e+00 1.294903917440360930e+00 4.174112474608036027e-01 1.294903917440360930e+00 -7.279734416455931445e+00
6.496479897688154814e+00 -1.587663275448756517e+00 4.183413311990490935e-01 -1.587663275448756517e+00 2.792535087026956742e+00 1.166304339232288712e+00 4.183413311990490935e-01 1.166304339232288712e+00 -7.081202875395558038e+00
6.528671129295206654e+00 -1.578899819781732550e+00 4.172562335044294191e-01 -1.578899819781732550e+00 3.038511233001606193e+00 1.032702977365207664e+00 4.172562335044294191e-01 1.032702977365207664e+00 -6.850945144597258007e+00
6.543170101348077417e+00 -1.567025750723465505e+00 4.149000213675408943e-01 -1.567025750723465505e+00 3.274814508098502497e+00 8.951952637974958105e-01 4.149000213675408943e-01 8.951952637974958105e-01 -6.605888748097096475e+00
6.546043026672880849e+00 -1.551359006865908663e+00 4.109626668756351520e-01 -1.551359006865908663e+00 3.506167670855180774e+00 7.550006416526303665e-01 4.109626668756351520e-01 7.550006416526303665e-01 -6.343915161824625670e+00
6.543573137634650649e+00 -1.531889253945303730e+00 4.058678748428016236e-01 -1.531889253945303730e+00 3.736487407236031455e+00 6.137519246044199628e-01 4.058678748428016236e-01 6.137519246044199628e-01 -6.058596473722193565e+00
6.527400014852938526e+00 -1.508967856929432250e+00 3.998429990717227156e-01 -1.508967856929432250e+00 3.955346445108946174e+00 4.718211461481630065e-01 3.998429990717227156e-01 4.718211461481630065e-01 -5.767583606288948062e+00
6.497420315690159320e+00 -1.481468381068641760e+00 3.931877332113885570e-01 -1.481468381068641760e+00 4.160977625371258704e+00 3.308411199576679618e-01 3.931877332113885570e-01 3.308411199576679618e-01 -5.467197561626939262e+00
6.457158024087889636e+00 -1.450537929640101087e+00 3.857987346242163218e-01 -1.450537929640101087e+00 4.354507382772622393e+00 1.919072779913129911e-01 3.857987346242163218e-01 1.919072779913129911e-01 -5.159308841476417662e+00
6.403089156104552870e+00 -1.415277421696839788e+00 3.783477304544943243e-01 -1.415277421696839788e+00 4.530871928071477761e+00 5.562934181083672297e-02 3.783477304544943243e-01 5.562934181083672297e-02 -4.848888226705116544e+00
6.354084077362775140e+00 -1.374891118929470357e+00 3.709690661310803828e-01 -1.374891118929470357e+00 4.707432824381741376e+00 -7.694892794417429460e-02 3.709690661310803828e-01 -7.694892794417429460e-02 -4.522511508691026805e+00