-6.744115453999999943e+01
-6.604132241000000647e+01
-6.693219677999999817e+01
-6.581636982999999930e+01
-6.615029850999999894e+01
-6.689253024999999298e+01
-6.885423742000000402e+01
-6.710044625000000451e+01
-6.822581574000000160e+01
-6.707110939999999744e+01
-6.523540690999999470e+01
-6.752222159000000090e+01
-6.655786136000000397e+01
-6.570018023000000085e+01
-6.781058507999999563e+01
-6.589205604999999366e+01
-6.518242342000000633e+01
-6.707432762999999909e+01
