-6.756021952999999769e+01
-6.753439858999999501e+01
-6.373618911999999881e+01
-6.333972582999999901e+01
