1.042000323871447875e+01 3.711278111736916241e+00 1.059939519991176748e+00 3.711278111736916241e+00 6.766823500529302926e+00 8.953403147000282836e-01 1.059939519991176748e+00 8.953403147000282836e-01 9.577594349176226984e+00
-1.176136234819301762e+01 9.570155904232079180e+00 -5.066953693316782470e+00 9.570155904232079180e+00 2.448691263081189451e+00 4.253189797305523712e+00 -5.066953693316782470e+00 4.253189797305523712e+00 -4.230838128190852920e+00
-3.785873175645418254e+00 1.919407783535164835e+00 -3.265748877675007655e-01 1.919407783535164835e+00 -5.607913181903563249e+00 -1.800438727946075623e+00 -3.265748877675007655e-01 -1.800438727946075623e+00 -1.270374051181506303e+01
-1.424050099908555689e+00 4.288135107857764083e+00 -4.390207808550906421e+00 4.288135107857764083e+00 4.896473523752177925e+00 -2.685659523407049054e+00 -4.390207808550906421e+00 -2.685659523407049054e+00 -4.315514743412347087e+00
