8.399868137000000345e+00 0.000000000000000000e+00 0.000000000000000000e+00 -4.140090754000000040e+00 7.170848041000000173e+00 0.000000000000000000e+00 0.000000000000000000e+00 0.000000000000000000e+00 2.000000000000000000e+01
8.540117107000000374e+00 0.000000000000000000e+00 0.000000000000000000e+00 -4.241900736999999921e+00 7.347188116999999963e+00 0.000000000000000000e+00 0.000000000000000000e+00 0.000000000000000000e+00 2.000000000000000000e+01
8.247701169999999138e+00 0.000000000000000000e+00 0.000000000000000000e+00 -4.276546497000000002e+00 7.407196337000000241e+00 0.000000000000000000e+00 0.000000000000000000e+00 0.000000000000000000e+00 2.000000000000000000e+01
7.969763903999999677e+00 0.000000000000000000e+00 0.000000000000000000e+00 -4.496772852000000320e+00 7.788639599999999774e+00 0.000000000000000000e+00 0.000000000000000000e+00 0.000000000000000000e+00 2.000000000000000000e+01
8.879523798999999329e+00 0.000000000000000000e+00 0.000000000000000000e+00 -4.079408518000000150e+00 7.065743316999999912e+00 0.000000000000000000e+00 0.000000000000000000e+00 0.000000000000000000e+00 2.000000000000000000e+01
8.546001342000000278e+00 0.000000000000000000e+00 0.000000000000000000e+00 -4.158617183999999689e+00 7.202936761000000132e+00 0.000000000000000000e+00 0.000000000000000000e+00 0.000000000000000000e+00 2.000000000000000000e+01
8.436052760999999123e+00 0.000000000000000000e+00 0.000000000000000000e+00 -4.217362340000000209e+00 7.304686363000000071e+00 0.000000000000000000e+00 0.000000000000000000e+00 0.000000000000000000e+00 2.000000000000000000e+01
7.489429774999999623e+00 0.000000000000000000e+00 0.000000000000000000e+00 2.742951908000000216e+00 7.238803842000000266e+00 0.000000000000000000e+00 0.000000000000000000e+00 0.000000000000000000e+00 2.000000000000000000e+01
8.630559269000000810e+00 0.000000000000000000e+00 0.000000000000000000e+00 2.679445654999999871e+00 7.071207281000000400e+00 0.000000000000000000e+00 0.000000000000000000e+00 0.000000000000000000e+00 2.000000000000000000e+01
7.781487131999999640e+00 0.000000000000000000e+00 0.000000000000000000e+00 -4.195947903999999617e+00 7.267595469999999835e+00 0.000000000000000000e+00 0.000000000000000000e+00 0.000000000000000000e+00 2.000000000000000000e+01
9.110993998999999732e+00 0.000000000000000000e+00 0.000000000000000000e+00 -4.263001560000000190e+00 7.383735816999999813e+00 0.000000000000000000e+00 0.000000000000000000e+00 0.000000000000000000e+00 2.000000000000000000e+01
8.682425469000000007e+00 0.000000000000000000e+00 0.000000000000000000e+00 2.921344379000000213e+00 7.861305526999999849e+00 0.000000000000000000e+00 0.000000000000000000e+00 0.000000000000000000e+00 2.000000000000000000e+01
8.631219962999999495e+00 0.000000000000000000e+00 0.000000000000000000e+00 -4.300143224000000153e+00 7.448067070999999650e+00 0.000000000000000000e+00 0.000000000000000000e+00 0.000000000000000000e+00 2.000000000000000000e+01
8.892439862999999889e+00 0.000000000000000000e+00 0.000000000000000000e+00 -4.411656984999999587e+00 7.641214584000000087e+00 0.000000000000000000e+00 0.000000000000000000e+00 0.000000000000000000e+00 2.000000000000000000e+01
9.401825685000000377e+00 0.000000000000000000e+00 0.000000000000000000e+00 -4.340734411999999764e+00 7.518373075999999600e+00 0.000000000000000000e+00 0.000000000000000000e+00 0.000000000000000000e+00 2.000000000000000000e+01
8.314763572000000380e+00 0.000000000000000000e+00 0.000000000000000000e+00 -4.198348432999999602e+00 7.271753307000000000e+00 0.000000000000000000e+00 0.000000000000000000e+00 0.000000000000000000e+00 2.000000000000000000e+01
8.009495121000000495e+00 0.000000000000000000e+00 0.000000000000000000e+00 -4.396535139000000036e+00 7.615022775999999993e+00 0.000000000000000000e+00 0.000000000000000000e+00 0.000000000000000000e+00 2.000000000000000000e+01
7.274636419000000132e+00 0.000000000000000000e+00 0.000000000000000000e+00 2.333267333000000221e+00 6.555351883000000157e+00 0.000000000000000000e+00 0.000000000000000000e+00 0.000000000000000000e+00 2.000000000000000000e+01
8.442867791999999483e+00 0.000000000000000000e+00 0.000000000000000000e+00 -4.082147879999999951e+00 7.070488033000000172e+00 0.000000000000000000e+00 0.000000000000000000e+00 0.000000000000000000e+00 2.000000000000000000e+01
7.895960213999999588e+00 0.000000000000000000e+00 0.000000000000000000e+00 -4.392835180999999700e+00 7.608614260999999601e+00 0.000000000000000000e+00 0.000000000000000000e+00 0.000000000000000000e+00 2.000000000000000000e+01
8.298784275999999238e+00 0.000000000000000000e+00 0.000000000000000000e+00 -3.922358168999999783e+00 6.793724114999999841e+00 0.000000000000000000e+00 0.000000000000000000e+00 0.000000000000000000e+00 2.000000000000000000e+01
7.589862679000000334e+00 0.000000000000000000e+00 0.000000000000000000e+00 -3.918791018999999931e+00 6.787545629000000247e+00 0.000000000000000000e+00 0.000000000000000000e+00 0.000000000000000000e+00 2.000000000000000000e+01
7.979349853999999631e+00 0.000000000000000000e+00 0.000000000000000000e+00 -4.241472467000000357e+00 7.346446330000000025e+00 0.000000000000000000e+00 0.000000000000000000e+00 0.000000000000000000e+00 2.000000000000000000e+01
8.948881266000000778e+00 0.000000000000000000e+00 0.000000000000000000e+00 -4.255682453999999559e+00 7.371058752999999797e+00 0.000000000000000000e+00 0.000000000000000000e+00 0.000000000000000000e+00 2.000000000000000000e+01
7.426416518999999994e+00 0.000000000000000000e+00 0.000000000000000000e+00 2.246753462000000034e+00 6.312289780000000405e+00 0.000000000000000000e+00 0.000000000000000000e+00 0.000000000000000000e+00 2.000000000000000000e+01
8.279169908000000078e+00 0.000000000000000000e+00 0.000000000000000000e+00 -4.418014423999999885e+00 7.652225990999999894e+00 0.000000000000000000e+00 0.000000000000000000e+00 0.000000000000000000e+00 2.000000000000000000e+01
8.646413519999999409e+00 0.000000000000000000e+00 0.000000000000000000e+00 -3.852014467000000053e+00 6.671885238999999856e+00 0.000000000000000000e+00 0.000000000000000000e+00 0.000000000000000000e+00 2.000000000000000000e+01
8.496148960999999389e+00 0.000000000000000000e+00 0.000000000000000000e+00 -4.095765598999999924e+00 7.094074615000000250e+00 0.000000000000000000e+00 0.000000000000000000e+00 0.000000000000000000e+00 2.000000000000000000e+01
8.677214944999999346e+00 0.000000000000000000e+00 0.000000000000000000e+00 -4.132353840000000389e+00 7.157447312000000395e+00 0.000000000000000000e+00 0.000000000000000000e+00 0.000000000000000000e+00 2.000000000000000000e+01
8.392992070000000027e+00 0.000000000000000000e+00 0.000000000000000000e+00 -4.107505749000000428e+00 7.114409152000000347e+00 0.000000000000000000e+00 0.000000000000000000e+00 0.000000000000000000e+00 2.000000000000000000e+01
8.848130051000000051e+00 0.000000000000000000e+00 0.000000000000000000e+00 -4.253454819999999970e+00 7.367200376000000439e+00 0.000000000000000000e+00 0.000000000000000000e+00 0.000000000000000000e+00 2.000000000000000000e+01
8.408755675000000096e+00 0.000000000000000000e+00 0.000000000000000000e+00 2.937147874999999964e+00 7.751297885999999693e+00 0.000000000000000000e+00 0.000000000000000000e+00 0.000000000000000000e+00 2.000000000000000000e+01
8.705898821999999981e+00 0.000000000000000000e+00 0.000000000000000000e+00 2.719063051000000009e+00 7.316968701000000408e+00 0.000000000000000000e+00 0.000000000000000000e+00 0.000000000000000000e+00 2.000000000000000000e+01
8.739594429000000275e+00 0.000000000000000000e+00 0.000000000000000000e+00 -4.146054333999999564e+00 7.181177264999999643e+00 0.000000000000000000e+00 0.000000000000000000e+00 0.000000000000000000e+00 2.000000000000000000e+01
8.935926836000000151e+00 0.000000000000000000e+00 0.000000000000000000e+00 -4.147717453000000276e+00 7.184057873000000427e+00 0.000000000000000000e+00 0.000000000000000000e+00 0.000000000000000000e+00 2.000000000000000000e+01
8.633883882999999315e+00 0.000000000000000000e+00 0.000000000000000000e+00 -4.169061561000000360e+00 7.221026955000000136e+00 0.000000000000000000e+00 0.000000000000000000e+00 0.000000000000000000e+00 2.000000000000000000e+01
9.140859264999999567e+00 0.000000000000000000e+00 0.000000000000000000e+00 -4.240056947000000243e+00 7.343994578000000217e+00 0.000000000000000000e+00 0.000000000000000000e+00 0.000000000000000000e+00 2.000000000000000000e+01
8.671666314999999514e+00 0.000000000000000000e+00 0.000000000000000000e+00 -4.083066705000000240e+00 7.072079483000000444e+00 0.000000000000000000e+00 0.000000000000000000e+00 0.000000000000000000e+00 2.000000000000000000e+01
8.781158531000000877e+00 0.000000000000000000e+00 0.000000000000000000e+00 -4.285381456999999727e+00 7.422498938000000379e+00 0.000000000000000000e+00 0.000000000000000000e+00 0.000000000000000000e+00 2.000000000000000000e+01
8.918591006999999848e+00 0.000000000000000000e+00 0.000000000000000000e+00 -4.236045381000000276e+00 7.337046341999999832e+00 0.000000000000000000e+00 0.000000000000000000e+00 0.000000000000000000e+00 2.000000000000000000e+01
7.136537307000000219e+00 0.000000000000000000e+00 0.000000000000000000e+00 2.377860426999999888e+00 6.680636894000000048e+00 0.000000000000000000e+00 0.000000000000000000e+00 0.000000000000000000e+00 2.000000000000000000e+01
8.342213686999999211e+00 0.000000000000000000e+00 0.000000000000000000e+00 -4.262104213999999835e+00 7.382181568000000027e+00 0.000000000000000000e+00 0.000000000000000000e+00 0.000000000000000000e+00 2.000000000000000000e+01
8.490518695000000449e+00 0.000000000000000000e+00 0.000000000000000000e+00 -4.478619175999999591e+00 7.757196507999999824e+00 0.000000000000000000e+00 0.000000000000000000e+00 0.000000000000000000e+00 2.000000000000000000e+01
8.495418347999999398e+00 0.000000000000000000e+00 0.000000000000000000e+00 3.092595661999999912e+00 8.322140840999999511e+00 0.000000000000000000e+00 0.000000000000000000e+00 0.000000000000000000e+00 2.000000000000000000e+01
8.786728238000000246e+00 0.000000000000000000e+00 0.000000000000000000e+00 -4.390637425999999621e+00 7.604807637000000398e+00 0.000000000000000000e+00 0.000000000000000000e+00 0.000000000000000000e+00 2.000000000000000000e+01
8.394931692000000112e+00 0.000000000000000000e+00 0.000000000000000000e+00 -4.083664943999999686e+00 7.073115663000000275e+00 0.000000000000000000e+00 0.000000000000000000e+00 0.000000000000000000e+00 2.000000000000000000e+01
9.002741517000000471e+00 0.000000000000000000e+00 0.000000000000000000e+00 -4.275575901999999928e+00 7.405515217999999678e+00 0.000000000000000000e+00 0.000000000000000000e+00 0.000000000000000000e+00 2.000000000000000000e+01
8.268329781000000267e+00 0.000000000000000000e+00 0.000000000000000000e+00 -4.235156019999999799e+00 7.335505923999999567e+00 0.000000000000000000e+00 0.000000000000000000e+00 0.000000000000000000e+00 2.000000000000000000e+01
8.483863112999999956e+00 0.000000000000000000e+00 0.000000000000000000e+00 -4.294209621000000254e+00 7.437789766999999941e+00 0.000000000000000000e+00 0.000000000000000000e+00 0.000000000000000000e+00 2.000000000000000000e+01
7.956365522999999662e+00 0.000000000000000000e+00 0.000000000000000000e+00 -4.166740638000000274e+00 7.217006997000000368e+00 0.000000000000000000e+00 0.000000000000000000e+00 0.000000000000000000e+00 2.000000000000000000e+01
8.632714424999999636e+00 0.000000000000000000e+00 0.000000000000000000e+00 -4.243482958000000416e+00 7.349928603999999588e+00 0.000000000000000000e+00 0.000000000000000000e+00 0.000000000000000000e+00 2.000000000000000000e+01
8.804608165999999514e+00 0.000000000000000000e+00 0.000000000000000000e+00 -4.221631125000000040e+00 7.312080115999999741e+00 0.000000000000000000e+00 0.000000000000000000e+00 0.000000000000000000e+00 2.000000000000000000e+01
8.456858071999999282e+00 0.000000000000000000e+00 0.000000000000000000e+00 -4.295592291000000174e+00 7.440184622000000303e+00 0.000000000000000000e+00 0.000000000000000000e+00 0.000000000000000000e+00 2.000000000000000000e+01
8.585543479000000033e+00 0.000000000000000000e+00 0.000000000000000000e+00 -3.986011045000000141e+00 6.903974137999999705e+00 0.000000000000000000e+00 0.000000000000000000e+00 0.000000000000000000e+00 2.000000000000000000e+01
7.858043978000000429e+00 0.000000000000000000e+00 0.000000000000000000e+00 2.366398280999999937e+00 6.648433810000000221e+00 0.000000000000000000e+00 0.000000000000000000e+00 0.000000000000000000e+00 2.000000000000000000e+01
8.128450838999999206e+00 0.000000000000000000e+00 0.000000000000000000e+00 2.683897495000000077e+00 7.222338577000000370e+00 0.000000000000000000e+00 0.000000000000000000e+00 0.000000000000000000e+00 2.000000000000000000e+01
8.622122063999999142e+00 0.000000000000000000e+00 0.000000000000000000e+00 -4.127863520000000008e+00 7.149669849000000355e+00 0.000000000000000000e+00 0.000000000000000000e+00 0.000000000000000000e+00 2.000000000000000000e+01
8.996177681000000703e+00 0.000000000000000000e+00 0.000000000000000000e+00 -4.372417126000000209e+00 7.573249149999999652e+00 0.000000000000000000e+00 0.000000000000000000e+00 0.000000000000000000e+00 2.000000000000000000e+01
8.949058690999999399e+00 0.000000000000000000e+00 0.000000000000000000e+00 -4.054480801999999606e+00 7.022567243000000126e+00 0.000000000000000000e+00 0.000000000000000000e+00 0.000000000000000000e+00 2.000000000000000000e+01
7.511411659000000185e+00 0.000000000000000000e+00 0.000000000000000000e+00 2.754577119999999990e+00 7.412536669999999717e+00 0.000000000000000000e+00 0.000000000000000000e+00 0.000000000000000000e+00 2.000000000000000000e+01
8.363385243999999830e+00 0.000000000000000000e+00 0.000000000000000000e+00 -4.463870949000000365e+00 7.731651828999999587e+00 0.000000000000000000e+00 0.000000000000000000e+00 0.000000000000000000e+00 2.000000000000000000e+01
9.075402087000000506e+00 0.000000000000000000e+00 0.000000000000000000e+00 -4.256111115999999583e+00 7.371801215999999712e+00 0.000000000000000000e+00 0.000000000000000000e+00 0.000000000000000000e+00 2.000000000000000000e+01
8.327459301999999397e+00 0.000000000000000000e+00 0.000000000000000000e+00 -4.428214860999999836e+00 7.669893669000000358e+00 0.000000000000000000e+00 0.000000000000000000e+00 0.000000000000000000e+00 2.000000000000000000e+01
8.606519584999999140e+00 0.000000000000000000e+00 0.000000000000000000e+00 -4.273465069000000227e+00 7.401859147999999777e+00 0.000000000000000000e+00 0.000000000000000000e+00 0.000000000000000000e+00 2.000000000000000000e+01
8.365281337000000761e+00 0.000000000000000000e+00 0.000000000000000000e+00 -4.490058083000000089e+00 7.777009278999999609e+00 0.000000000000000000e+00 0.000000000000000000e+00 0.000000000000000000e+00 2.000000000000000000e+01
8.162764431999999459e+00 0.000000000000000000e+00 0.000000000000000000e+00 -3.963209624000000098e+00 6.864480915999999766e+00 0.000000000000000000e+00 0.000000000000000000e+00 0.000000000000000000e+00 2.000000000000000000e+01
8.563678858999999477e+00 0.000000000000000000e+00 0.000000000000000000e+00 -4.151669797000000273e+00 7.190903534000000263e+00 0.000000000000000000e+00 0.000000000000000000e+00 0.000000000000000000e+00 2.000000000000000000e+01
8.963282289000000347e+00 0.000000000000000000e+00 0.000000000000000000e+00 -4.247007462000000011e+00 7.356033222999999843e+00 0.000000000000000000e+00 0.000000000000000000e+00 0.000000000000000000e+00 2.000000000000000000e+01
7.927802924999999945e+00 0.000000000000000000e+00 0.000000000000000000e+00 2.733547343000000129e+00 7.355945773000000187e+00 0.000000000000000000e+00 0.000000000000000000e+00 0.000000000000000000e+00 2.000000000000000000e+01
8.260290397000000340e+00 0.000000000000000000e+00 0.000000000000000000e+00 2.777310233000000128e+00 7.473711225999999819e+00 0.000000000000000000e+00 0.000000000000000000e+00 0.000000000000000000e+00 2.000000000000000000e+01
8.132050783000000393e+00 0.000000000000000000e+00 0.000000000000000000e+00 -4.148384476999999571e+00 7.185213190999999888e+00 0.000000000000000000e+00 0.000000000000000000e+00 0.000000000000000000e+00 2.000000000000000000e+01
8.244011460999999485e+00 0.000000000000000000e+00 0.000000000000000000e+00 -4.517254495999999619e+00 7.824114851000000037e+00 0.000000000000000000e+00 0.000000000000000000e+00 0.000000000000000000e+00 2.000000000000000000e+01
8.867337736999999720e+00 0.000000000000000000e+00 0.000000000000000000e+00 -4.366529122000000207e+00 7.563050825999999560e+00 0.000000000000000000e+00 0.000000000000000000e+00 0.000000000000000000e+00 2.000000000000000000e+01
8.056944226000000597e+00 0.000000000000000000e+00 0.000000000000000000e+00 -4.334805267000000129e+00 7.508103494000000211e+00 0.000000000000000000e+00 0.000000000000000000e+00 0.000000000000000000e+00 2.000000000000000000e+01
8.480134397000000490e+00 0.000000000000000000e+00 0.000000000000000000e+00 -4.233957066000000324e+00 7.333429273000000137e+00 0.000000000000000000e+00 0.000000000000000000e+00 0.000000000000000000e+00 2.000000000000000000e+01
8.126900350999999745e+00 0.000000000000000000e+00 0.000000000000000000e+00 -4.309849800000000286e+00 7.464879353999999800e+00 0.000000000000000000e+00 0.000000000000000000e+00 0.000000000000000000e+00 2.000000000000000000e+01
8.906985690999999150e+00 0.000000000000000000e+00 0.000000000000000000e+00 -4.118997559000000308e+00 7.134313553000000141e+00 0.000000000000000000e+00 0.000000000000000000e+00 0.000000000000000000e+00 2.000000000000000000e+01
8.954684594999999803e+00 0.000000000000000000e+00 0.000000000000000000e+00 -3.943977058000000202e+00 6.831169130000000145e+00 0.000000000000000000e+00 0.000000000000000000e+00 0.000000000000000000e+00 2.000000000000000000e+01
8.781363899000000472e+00 0.000000000000000000e+00 0.000000000000000000e+00 -3.994523958999999902e+00 6.918718937999999596e+00 0.000000000000000000e+00 0.000000000000000000e+00 0.000000000000000000e+00 2.000000000000000000e+01
9.089759006999999613e+00 0.000000000000000000e+00 0.000000000000000000e+00 -4.402253123000000379e+00 7.624926615999999768e+00 0.000000000000000000e+00 0.000000000000000000e+00 0.000000000000000000e+00 2.000000000000000000e+01
9.372611959000000326e+00 0.000000000000000000e+00 0.000000000000000000e+00 -4.173492383000000139e+00 7.228701362999999880e+00 0.000000000000000000e+00 0.000000000000000000e+00 0.000000000000000000e+00 2.000000000000000000e+01
7.706658823999999797e+00 0.000000000000000000e+00 0.000000000000000000e+00 3.041949048000000211e+00 8.027874054999999842e+00 0.000000000000000000e+00 0.000000000000000000e+00 0.000000000000000000e+00 2.000000000000000000e+01
7.398083108999999880e+00 0.000000000000000000e+00 0.000000000000000000e+00 2.427445012999999818e+00 6.819945581999999895e+00 0.000000000000000000e+00 0.000000000000000000e+00 0.000000000000000000e+00 2.000000000000000000e+01
8.709591707999999599e+00 0.000000000000000000e+00 0.000000000000000000e+00 -4.322822410999999754e+00 7.487348576999999672e+00 0.000000000000000000e+00 0.000000000000000000e+00 0.000000000000000000e+00 2.000000000000000000e+01
7.625017371000000210e+00 0.000000000000000000e+00 0.000000000000000000e+00 2.126759357000000072e+00 5.975164421999999753e+00 0.000000000000000000e+00 0.000000000000000000e+00 0.000000000000000000e+00 2.000000000000000000e+01
8.711366242000000426e+00 0.000000000000000000e+00 0.000000000000000000e+00 -4.417674839000000020e+00 7.651637813999999871e+00 0.000000000000000000e+00 0.000000000000000000e+00 0.000000000000000000e+00 2.000000000000000000e+01
6.970755131999999854e+00 0.000000000000000000e+00 0.000000000000000000e+00 2.337182861000000056e+00 6.566352621000000056e+00 0.000000000000000000e+00 0.000000000000000000e+00 0.000000000000000000e+00 2.000000000000000000e+01
8.743264656999999218e+00 0.000000000000000000e+00 0.000000000000000000e+00 -4.250190684999999746e+00 7.361546728999999623e+00 0.000000000000000000e+00 0.000000000000000000e+00 0.000000000000000000e+00 2.000000000000000000e+01
8.640981136000000618e+00 0.000000000000000000e+00 0.000000000000000000e+00 -4.187513475000000263e+00 7.252986608999999696e+00 0.000000000000000000e+00 0.000000000000000000e+00 0.000000000000000000e+00 2.000000000000000000e+01
8.179574912999999725e+00 0.000000000000000000e+00 0.000000000000000000e+00 2.830488444000000214e+00 7.616813205999999781e+00 0.000000000000000000e+00 0.000000000000000000e+00 0.000000000000000000e+00 2.000000000000000000e+01
9.032682425000000848e+00 0.000000000000000000e+00 0.000000000000000000e+00 -4.288821785999999747e+00 7.428457764000000019e+00 0.000000000000000000e+00 0.000000000000000000e+00 0.000000000000000000e+00 2.000000000000000000e+01
8.470006622999999735e+00 0.000000000000000000e+00 0.000000000000000000e+00 -3.789996289999999934e+00 6.564466599000000180e+00 0.000000000000000000e+00 0.000000000000000000e+00 0.000000000000000000e+00 2.000000000000000000e+01
7.698528944000000429e+00 0.000000000000000000e+00 0.000000000000000000e+00 2.224745734999999947e+00 6.250458719000000052e+00 0.000000000000000000e+00 0.000000000000000000e+00 0.000000000000000000e+00 2.000000000000000000e+01
8.642110255000000407e+00 0.000000000000000000e+00 0.000000000000000000e+00 2.739753309000000137e+00 7.372645958999999749e+00 0.000000000000000000e+00 0.000000000000000000e+00 0.000000000000000000e+00 2.000000000000000000e+01
8.597130853999999545e+00 0.000000000000000000e+00 0.000000000000000000e+00 -4.252489448000000394e+00 7.365528302000000416e+00 0.000000000000000000e+00 0.000000000000000000e+00 0.000000000000000000e+00 2.000000000000000000e+01
8.864829181999999363e+00 0.000000000000000000e+00 0.000000000000000000e+00 -3.950135421000000147e+00 6.841835728999999588e+00 0.000000000000000000e+00 0.000000000000000000e+00 0.000000000000000000e+00 2.000000000000000000e+01
8.487620937000000865e+00 0.000000000000000000e+00 0.000000000000000000e+00 -4.413635956000000249e+00 7.644642262999999716e+00 0.000000000000000000e+00 0.000000000000000000e+00 0.000000000000000000e+00 2.000000000000000000e+01
7.810769854000000123e+00 0.000000000000000000e+00 0.000000000000000000e+00 -4.173501099000000103e+00 7.228716460000000232e+00 0.000000000000000000e+00 0.000000000000000000e+00 0.000000000000000000e+00 2.000000000000000000e+01
8.341327310000000494e+00 0.000000000000000000e+00 0.000000000000000000e+00 -4.142358963000000394e+00 7.174776695000000259e+00 0.000000000000000000e+00 0.000000000000000000e+00 0.000000000000000000e+00 2.000000000000000000e+01
9.185689691000000323e+00 0.000000000000000000e+00 0.000000000000000000e+00 -4.806754091000000173e+00 8.325542892999999722e+00 0.000000000000000000e+00 0.000000000000000000e+00 0.000000000000000000e+00 2.000000000000000000e+01
