3.099180000000000268e-01 -5.093680000000000430e-01 9.002390000000000114e-01 -3.222709999999999742e-01 1.691799999999999901e-02 4.640739999999999865e-01 -1.215953000000000062e+00 -8.379029999999999534e-01 -1.346390999999999893e+00 1.765689000000000064e+00 1.653796999999999962e+00 2.759999999999999867e-04 -3.186860000000000248e-01 -1.933956999999999926e+00 -1.566011000000000042e+00 -2.563980000000000148e-01 1.903449999999999864e-01 8.580759999999999499e-01 -7.139360000000000150e-01 -5.844209999999999683e-01 1.652700000000000058e+00 5.684970000000000301e-01 -9.936279999999999557e-01 -5.276910000000000212e-01 -7.004899999999999460e-01 5.163940000000000197e-01 -3.593709999999999960e-01 -3.925100000000000117e-02 -6.972100000000000519e-02 -2.500000000000000052e-03 4.513400000000000190e-01 -2.722000000000000114e-02 -1.273134999999999906e+00 -1.555649000000000060e+00 -5.405529999999999502e-01 -1.443068999999999935e+00 5.600089999999999790e-01 -4.889149999999999885e-01 5.635569999999999746e-01 1.577009000000000105e+00 9.525090000000000501e-01 6.119259999999999700e-01 -6.501160000000000272e-01 7.283190000000000497e-01 -4.332699999999999885e-01 1.949089999999999989e-01 -1.000931999999999933e+00 1.546856999999999926e+00 9.493420000000000192e-01 1.540431000000000106e+00 6.008959999999999857e-01 -4.573100000000000082e-02 3.571210000000000218e-01 -8.659139999999999615e-01 7.458800000000000152e-02 6.360959999999999948e-01 -4.143510000000000248e-01 -6.328179999999999916e-01 3.946890000000000120e-01 1.033103000000000105e+00
-8.002700000000000369e-01 1.937029999999999863e-01 2.234919999999999962e-01 -1.092473000000000027e+00 1.077269999999999950e+00 -2.248549999999999993e-01 -2.058669999999999944e-01 1.236619999999999941e-01 3.485809999999999742e-01 3.870020000000000127e-01 4.950780000000000181e-01 3.290549999999999864e-01 -9.020000000000000240e-04 -1.117449999999999971e-01 -2.961889999999999801e-01 4.732299999999999701e-02 1.017257999999999996e+00 6.341489999999999627e-01 8.043409999999999727e-01 -8.577630000000000532e-01 5.591230000000000366e-01 4.154220000000000135e-01 6.177799999999999958e-02 -2.744480000000000253e-01 -5.541920000000000179e-01 -5.906660000000000244e-01 -4.295689999999999786e-01 -1.421299999999999994e-02 1.611450000000000105e-01 2.461180000000000034e-01 1.358392999999999962e+00 -1.446125000000000105e+00 -9.326370000000000493e-01 9.610119999999999774e-01 -1.285229999999999984e-01 -1.065167999999999893e+00 -5.421070000000000055e-01 4.493710000000000204e-01 6.260069999999999801e-01 -9.277220000000000466e-01 2.595660000000000189e-01 1.481654999999999944e+00 -2.873240000000000238e-01 -2.529739999999999767e-01 -1.801969999999999961e-01 4.671879999999999922e-01 -8.732999999999999444e-03 -1.152969999999999967e-01 -3.123520000000000185e-01 2.854809999999999848e-01 7.608430000000000470e-01 1.000183000000000044e+00 4.644510000000000027e-01 -1.229862999999999928e+00 6.017600000000000032e-02 -9.637240000000000251e-01 -5.504759999999999653e-01 -7.636180000000000190e-01 -2.285099999999999909e-01 8.967700000000000671e-02
6.897649999999999615e-01 8.276599999999999513e-01 -4.535660000000000247e-01 -1.076270000000000060e+00 1.220990000000000020e+00 1.223565000000000014e+00 -5.194029999999999481e-01 -1.019212999999999925e+00 -2.843660000000000077e-01 -5.288910000000000000e-01 -1.675974999999999993e+00 -1.650159999999999960e-01 -2.218008999999999897e+00 -1.702849999999999919e-01 -7.945240000000000080e-01 2.438299999999999912e-01 5.986639999999999739e-01 -1.083585999999999938e+00 -5.208939999999999682e-01 1.396020999999999956e+00 1.151426999999999978e+00 1.610970000000000013e+00 6.517060000000000075e-01 -1.946420000000000095e-01 -4.053050000000000264e-01 -1.022259999999999974e-01 2.198549999999999949e-01 -7.301290000000000280e-01 3.164910000000000223e-01 -5.756679999999999575e-01 2.405640000000000001e-01 -2.434659999999999880e-01 6.082400000000000029e-01 9.049100000000000199e-02 -1.761830999999999925e+00 9.971109999999999696e-01 1.051341000000000081e+00 1.033374999999999932e+00 6.026059999999999750e-01 8.230070000000000441e-01 7.653339999999999588e-01 2.402279999999999971e-01 8.697580000000000311e-01 -5.356389999999999763e-01 4.633970000000000034e-01 -1.356181999999999999e+00 -1.220519999999999938e-01 5.859619999999999829e-01 1.215522999999999909e+00 9.103940000000000365e-01 -1.104953999999999992e+00 -3.961959999999999926e-01 -8.420140000000000402e-01 -1.103709999999999969e-01 2.313099999999999878e-02 -1.110370999999999997e+00 -5.575189999999999868e-01 8.928989999999999982e-01 -1.375599999999999878e-01 -7.681769999999999987e-01
-1.954029000000000016e+00 1.218118000000000034e+00 -5.753999999999999566e-03 -8.470099999999999851e-02 2.582389999999999963e-01 1.671729999999999883e-01 -1.038900000000000066e-02 -4.752160000000000273e-01 -6.479639999999999844e-01 9.907000000000000528e-02 -9.905200000000000116e-02 5.998930000000000096e-01 1.388310000000000100e-01 4.987590000000000079e-01 4.388940000000000063e-01 -1.758671000000000095e+00 1.794159999999999922e-01 2.288409999999999889e-01 -4.978890000000000260e-01 -9.863900000000000445e-02 9.862100000000000311e-01 -2.430660000000000043e-01 3.610800000000000121e-01 -5.864610000000000101e-01 -9.690500000000000502e-02 1.107810000000000045e-01 1.069360000000000033e-01 -5.900699999999999695e-02 -2.003780000000000006e-01 -4.842219999999999858e-01 2.007641000000000009e+00 -7.333659999999999624e-01 -7.542360000000000175e-01 6.226369999999999960e-01 -1.633969999999999867e-01 4.155530000000000057e-01 5.183950000000000502e-01 1.362949999999999995e-01 2.409469999999999945e-01 -8.148400000000000087e-02 4.713310000000000000e-01 -6.299940000000000540e-01 -2.305310000000000137e-01 -8.301119999999999610e-01 3.989820000000000033e-01 -1.226229999999999959e-01 -4.325499999999999901e-01 -9.827669999999999462e-01 4.058350000000000013e-01 -9.299770000000000536e-01 5.877500000000000085e-02 6.989000000000000420e-03 3.762019999999999809e-01 6.868589999999999973e-01 -2.354930000000000079e-01 1.201046000000000058e+00 -5.365899999999999836e-02 1.575390999999999986e+00 -8.485800000000000010e-01 -1.840070000000000039e-01
-1.543019999999999947e-01 -1.380540000000000100e-01 -1.693100000000000160e-02 -2.204527999999999821e+00 2.061990999999999907e+00 4.521169999999999911e-01 1.171859999999999902e+00 4.808830000000000049e-01 4.901519999999999766e-01 1.407488000000000072e+00 9.200890000000000457e-01 9.269380000000000397e-01 6.252720000000000500e-01 -4.941059999999999897e-01 1.723912000000000111e+00 -8.659470000000000223e-01 -1.097507000000000010e+00 5.609929999999999639e-01 -3.494729999999999781e-01 7.108259999999999579e-01 -2.809929999999999928e-01 3.849899999999999850e-02 8.464700000000000002e-02 3.062779999999999947e-01 5.585839999999999694e-01 2.574179999999999802e-01 2.690469999999999806e-01 -4.148089999999999833e-01 -4.981729999999999769e-01 4.850380000000000247e-01 -1.100560999999999900e+00 -1.129817999999999989e+00 -8.824969999999999759e-01 9.178009999999999780e-01 -2.268282999999999827e+00 -1.608691000000000093e+00 -7.330000000000000361e-04 1.405000000000000138e-01 7.586129999999999818e-01 3.265609999999999902e-01 -3.673330000000000206e-01 2.818939999999999779e-01 1.243303999999999965e+00 1.091752000000000056e+00 1.019779999999999992e-01 -5.332440000000000513e-01 -2.844249999999999834e-01 -1.195416999999999952e+00 1.320089999999999875e-01 5.997470000000000301e-01 -1.964507000000000003e+00 -1.541569999999999885e-01 8.137500000000000289e-02 -1.164580000000000060e-01 -2.240949999999999886e-01 -2.634299999999999836e-02 -5.658990000000000409e-01 -4.195300000000000140e-01 -1.251839999999999897e-01 2.744329999999999825e-01
-2.489069999999999894e-01 -3.125209999999999932e-01 -2.150361000000000189e+00 -8.144719999999999738e-01 -2.775409999999999822e-01 -7.385890000000000510e-01 9.080100000000000671e-02 5.355269999999999753e-01 -4.327540000000000275e-01 -2.022589999999999943e-01 -3.829540000000000166e-01 -2.242929999999999924e-01 -3.591340000000000088e-01 5.468750000000000000e-01 -7.725819999999999910e-01 7.033500000000000307e-01 -4.689150000000000262e-01 3.452729999999999966e-01 -1.292220000000000035e-01 -6.527640000000000109e-01 1.746149999999999924e-01 3.928000000000000068e-03 2.252550000000000108e-01 -8.869900000000000007e-02 5.631699999999999900e-02 7.331940000000000124e-01 5.120109999999999939e-01 4.768330000000000068e-01 -5.178110000000000213e-01 9.024199999999999999e-01 -1.226919999999999955e-01 5.534639999999999560e-01 1.525170000000000137e-01 1.445269999999999888e-01 -3.263220000000000010e-01 5.033889999999999754e-01 -6.069900000000000295e-02 1.912909999999999888e-01 1.079561999999999911e+00 3.585709999999999731e-01 3.192699999999999982e-01 3.033509999999999818e-01 4.101429999999999798e-01 -4.803600000000000092e-01 -2.507280000000000064e-01 -7.236939999999999484e-01 8.676709999999999701e-01 -2.890030000000000099e-01 8.328130000000000255e-01 1.106133000000000033e+00 8.926499999999999713e-02 3.717369999999999841e-01 -1.153299999999999985e-02 4.399089999999999945e-01 -9.707310000000000105e-01 -3.340480000000000116e-01 -2.187899999999999914e-02 1.827910000000000090e-01 -1.313911999999999969e+00 4.665759999999999907e-01
1.398401000000000005e+00 1.411570000000000047e-01 -1.030999999999999972e-01 1.148616999999999999e+00 1.027012000000000036e+00 -8.277160000000000073e-01 1.452160000000000117e-01 -8.452700000000000491e-02 5.639349999999999641e-01 2.485070000000000057e-01 2.018439999999999956e-01 -6.202790000000000248e-01 2.020260000000000111e-01 -3.360170000000000101e-01 -3.074000000000000066e-01 -3.501230000000000175e-01 -5.059200000000000363e-01 8.567360000000000531e-01 -3.885210000000000052e-01 8.423749999999999849e-01 -2.779130000000000211e-01 -4.231269999999999754e-01 -2.964490000000000181e-01 3.817499999999999782e-01 -5.194860000000000033e-01 -8.697120000000000406e-01 6.992099999999999704e-02 -8.853900000000000103e-01 -6.077789999999999582e-01 1.136950000000000044e-01 -1.064421000000000062e+00 -8.390250000000000208e-01 3.907939999999999747e-01 -5.677700000000000108e-02 4.217560000000000198e-01 9.210209999999999786e-01 -6.259620000000000184e-01 1.460655999999999954e+00 9.802500000000000102e-02 9.487689999999999735e-01 -5.094649999999999457e-01 -3.041989999999999972e-01 5.505000000000000171e-02 -1.187900000000000067e-02 -3.792789999999999773e-01 -3.682199999999999918e-01 5.614919999999999911e-01 -2.279019999999999935e-01 8.728400000000000047e-02 -9.726500000000000423e-02 -3.910850000000000160e-01 -7.114530000000000021e-01 -5.488830000000000098e-01 6.119510000000000227e-01 6.652200000000000335e-01 8.604100000000000636e-02 -3.559200000000000141e-01 4.943910000000000249e-01 -3.540999999999999703e-02 -2.130340000000000011e-01
3.163300000000000139e-02 1.024245999999999990e+00 -1.528626000000000040e+00 1.724719999999999864e-01 -4.666569999999999885e-01 -4.928839999999999888e-01 -7.642200000000000382e-02 -3.149819999999999842e-01 1.090386999999999995e+00 -7.201070000000000526e-01 -7.468679999999999763e-01 -4.949640000000000151e-01 -1.032278999999999947e+00 1.006750999999999951e+00 -2.731060000000000154e-01 1.960584000000000104e+00 -2.043100000000000124e-02 -3.765910000000000091e-01 -8.121899999999999675e-01 -9.312970000000000415e-01 6.219740000000000268e-01 3.145229999999999970e-01 5.952099999999999752e-02 -3.311900000000000260e-02 8.377300000000000024e-02 9.951200000000000323e-02 9.255499999999999838e-02 -4.529440000000000133e-01 -7.755379999999999496e-01 3.578400000000000331e-02 -2.297760000000000080e-01 4.248099999999999793e-02 7.580700000000000216e-01 -5.409519999999999884e-01 -2.869999999999999830e-04 2.990599999999999856e-02 8.414669999999999650e-01 -1.279557000000000055e+00 -8.961069999999999869e-01 6.611749999999999572e-01 7.251999999999999558e-01 1.391539999999999999e-01 3.850520000000000054e-01 -3.333679999999999977e-01 -9.328459999999999530e-01 4.078579999999999983e-01 4.270320000000000227e-01 1.342996999999999996e+00 -7.938030000000000364e-01 -1.007238999999999995e+00 6.103859999999999841e-01 3.169239999999999835e-01 2.902509999999999812e-01 -4.396399999999999753e-01 1.349549999999999916e-01 9.950360000000000316e-01 1.843200000000000116e-01 -6.519439999999999680e-01 1.206193000000000071e+00 5.623500000000000165e-01
1.428359999999999908e-01 -2.023379999999999901e-01 -2.547490000000000032e-01 -3.270290000000000141e-01 -3.169399999999999995e-02 2.421109999999999929e-01 7.138269999999999893e-01 4.916070000000000162e-01 1.031520999999999910e+00 1.811260000000000092e-01 7.880099999999999605e-02 -4.817730000000000068e-01 8.925119999999999720e-01 -9.290700000000000347e-02 4.049200000000000021e-01 -4.026600000000000318e-02 -6.753649999999999931e-01 2.403599999999999834e-02 7.866729999999999556e-01 6.084910000000000041e-01 -3.333400000000000252e-01 -1.048504000000000103e+00 -4.244720000000000160e-01 1.747800000000000048e-02 2.540810000000000013e-01 9.759600000000000219e-02 3.704589999999999828e-01 -1.903799999999999937e-01 -4.344499999999999751e-02 6.932730000000000281e-01 -1.381553000000000031e+00 -2.194129999999999969e-01 -1.473289000000000071e+00 2.014009999999999967e-01 1.605530000000000013e-01 1.721040000000000070e-01 -1.393283000000000049e+00 -6.300400000000000444e-01 3.548199999999999965e-02 9.916390000000000482e-01 -2.959149999999999836e-01 1.694789999999999908e-01 -1.431409999999999905e-01 2.312039999999999929e-01 -8.253570000000000073e-01 8.049099999999999311e-02 -9.473359999999999559e-01 1.313449999999999895e-01 1.952999999999999875e-02 8.683480000000000087e-01 4.158950000000000147e-01 4.066399999999999876e-02 7.758939999999999726e-01 -4.948569999999999913e-01 -5.587229999999999697e-01 -4.968719999999999803e-01 2.767850000000000033e-01 7.781000000000000139e-01 7.473020000000000218e-01 -1.215230000000000060e-01
-5.991769999999999596e-01 1.179990000000000094e+00 1.006661999999999946e+00 -1.911539999999999906e-01 9.380300000000000304e-01 4.022479999999999944e-01 3.681099999999999928e-01 2.124659999999999882e-01 1.971189999999999887e-01 -1.811700000000000116e-02 -6.612689999999999957e-01 1.748879999999999879e-01 -1.897999999999999965e-01 3.940270000000000161e-01 -1.762809999999999933e-01 2.401949999999999918e-01 -6.796280000000000099e-01 -5.320059999999999789e-01 -5.541880000000000139e-01 -4.807310000000000194e-01 1.096540000000000015e-01 1.092319999999999958e-01 1.256659999999999999e-01 -2.617280000000000162e-01 -1.041142000000000012e+00 -3.587440000000000073e-01 1.447060000000000013e-01 -1.663491000000000053e+00 3.271000000000000036e-03 5.117690000000000294e-01 1.113550999999999958e+00 -6.896139999999999493e-01 -8.457930000000000170e-01 1.616378000000000092e+00 -4.811159999999999881e-01 7.540499999999999980e-02 5.298089999999999744e-01 -5.129669999999999508e-01 -9.655540000000000234e-01 -2.247059999999999891e-01 -9.074320000000000164e-01 2.959359999999999769e-01 4.788890000000000091e-01 2.849499999999999950e-02 -8.225479999999999459e-01 7.125829999999999664e-01 5.544329999999999536e-01 -6.344819999999999904e-01 -5.722199999999999509e-01 -5.719079999999999719e-01 1.533836999999999895e+00 5.355600000000000360e-01 1.271554999999999991e+00 -1.197457999999999911e+00 1.502819999999999989e-01 1.518839999999999912e-01 5.155210000000000070e-01 -8.005949999999999456e-01 4.835929999999999951e-01 4.681069999999999953e-01
-6.641430000000000389e-01 -7.118799999999999573e-01 4.281579999999999830e-01 -2.029504000000000197e+00 -4.778400000000000009e-02 8.425780000000000491e-01 5.579709999999999948e-01 4.040050000000000030e-01 -6.471639999999999615e-01 2.362829999999999930e-01 6.206939999999999680e-01 2.391149999999999942e-01 5.177869999999999973e-01 -2.022300000000000139e-02 2.623829999999999774e-01 3.133730000000000127e-01 7.683370000000000477e-01 4.453759999999999941e-01 -1.866510000000000113e-01 4.643430000000000057e-01 -9.136199999999999877e-02 -3.946180000000000243e-01 -4.599750000000000227e-01 8.114810000000000079e-01 -3.980980000000000074e-01 -2.591559999999999975e-01 -7.732989999999999586e-01 -3.032699999999999840e-01 -2.792789999999999995e-01 -6.464999999999999913e-02 6.466880000000000406e-01 1.008069000000000104e+00 -1.241000000000000020e-01 1.736501999999999990e+00 -2.294899999999999995e-01 -1.021250999999999909e+00 9.364430000000000254e-01 1.570340000000000069e-01 -5.454139999999999544e-01 7.490459999999999896e-01 -1.384330000000000005e-01 -2.667209999999999859e-01 -1.357018000000000058e+00 -2.831239999999999868e-01 8.075130000000000363e-01 3.114799999999999860e-02 -3.523160000000000180e-01 1.873890000000000000e-01 -1.040869999999999990e-01 -7.415720000000000089e-01 -1.468283999999999923e+00 -3.302399999999999780e-01 3.709779999999999744e-01 7.378919999999999924e-01 -1.456419999999999937e-01 3.715089999999999781e-01 5.642749999999999710e-01 1.880290000000000017e-01 -6.417370000000000019e-01 -3.239150000000000085e-01
2.244019999999999904e-01 -3.705499999999999905e-01 -2.464800000000000046e-01 5.726529999999999676e-01 3.518660000000000121e-01 -1.031446000000000085e+00 -7.450099999999999778e-02 3.389949999999999908e-01 -8.296240000000000281e-01 -6.686619999999999786e-01 -4.013939999999999730e-01 8.620120000000000005e-01 -6.528410000000000046e-01 -6.169869999999999521e-01 -5.001900000000000096e-02 4.392800000000000038e-01 7.106899999999999329e-02 7.832000000000000073e-02 -1.869000000000000002e-03 6.032599999999999768e-02 -2.754170000000000229e-01 -4.920100000000000029e-01 -1.539310000000000123e-01 -5.859830000000000316e-01 -2.066340000000000121e-01 2.426409999999999956e-01 -4.835900000000000198e-01 -5.825500000000000123e-02 -9.836319999999999508e-01 -7.148470000000000102e-01 3.908659999999999912e-01 7.411729999999999707e-01 -2.710310000000000219e-01 2.874129999999999741e-01 -7.383699999999999986e-02 -4.723310000000000008e-01 2.186760000000000093e-01 -9.548199999999999743e-02 1.192968999999999946e+00 -4.949230000000000018e-01 2.794599999999999862e-02 1.528448999999999947e+00 -3.156579999999999941e-01 -8.672100000000000641e-02 1.132587999999999928e+00 1.461030000000000106e-01 1.171699999999999964e+00 2.628300000000000081e-02 2.218549999999999967e-01 5.708590000000000053e-01 -4.331690000000000262e-01 5.960619999999999807e-01 -9.666800000000000392e-02 2.564400000000000013e-02 -2.419899999999999829e-02 -3.510670000000000179e-01 2.468990000000000073e-01 -1.077580000000000066e-01 -3.463080000000000047e-01 3.007739999999999858e-01
3.665359999999999729e-01 -3.895009999999999861e-01 4.085860000000000047e-01 -6.818599999999999661e-02 1.397970000000000046e-01 -1.301773999999999987e+00 -3.480320000000000080e-01 3.327169999999999850e-01 -8.691689999999999694e-01 5.143520000000000314e-01 -5.306769999999999543e-01 3.328530000000000100e-01 4.487340000000000217e-01 -7.595089999999999897e-01 1.323553999999999897e+00 -2.268870000000000053e-01 -4.559099999999999958e-02 3.243639999999999857e-01 5.175570000000000448e-01 -7.535500000000000531e-01 6.357129999999999725e-01 -5.898949999999999472e-01 1.318451999999999957e+00 1.006564000000000014e+00 -3.446899999999999964e-02 -2.003000000000000006e-03 -6.833120000000000305e-01 -2.009700000000000097e-01 6.433219999999999494e-01 2.060329999999999939e-01 3.099009999999999820e-01 -3.575019999999999865e-01 -2.569540000000000157e-01 -8.610729999999999773e-01 -2.662820000000000187e-01 -1.717589999999999950e-01 7.630299999999999583e-02 3.422589999999999799e-01 -1.161670000000000064e-01 -4.815500000000000336e-02 7.012999999999999790e-02 -3.668569999999999887e-01 -1.193670000000000009e-01 8.711389999999999967e-01 1.383989999999999942e-01 5.006840000000000179e-01 2.274460000000000093e-01 -1.392170000000000074e-01 -1.055171000000000081e+00 -5.541019999999999834e-01 1.262840000000000074e-01 -2.379670000000000119e-01 -3.716300000000000159e-02 3.730829999999999980e-01 3.132829999999999782e-01 -1.898430000000000117e-01 -2.011800000000000047e-02 7.428230000000000111e-01 -5.954000000000000264e-02 -9.501070000000000348e-01
1.372100000000000056e-02 -1.428200000000000025e-01 3.453200000000000158e-01 1.526160000000000017e-01 -3.136630000000000251e-01 6.578659999999999508e-01 5.132799999999999863e-02 -2.799139999999999961e-01 4.054079999999999906e-01 8.969700000000000450e-01 7.434399999999999897e-01 5.083550000000000013e-01 1.234169999999999989e-01 3.804779999999999829e-01 1.317285999999999957e+00 7.385739999999999528e-01 -2.463950000000000029e-01 3.347419999999999840e-01 1.500186000000000019e+00 1.661449999999999871e-01 1.912399999999999864e-02 -1.202369999999999967e-01 2.835630000000000095e-01 5.287220000000000253e-01 -5.345090000000000119e-01 -1.989789999999999892e-01 2.551329999999999987e-01 -4.046290000000000164e-01 1.162999999999999971e-03 -8.383699999999999486e-02 -1.460329999999999961e-01 2.438029999999999919e-01 -1.911849999999999938e-01 -7.292769999999999531e-01 -2.731729999999999992e-01 -2.385780000000000123e-01 -6.298209999999999642e-01 8.068079999999999696e-01 -7.156080000000000219e-01 1.240139999999999992e-01 -5.502489999999999881e-01 -6.369270000000000209e-01 -3.375429999999999819e-01 3.426770000000000094e-01 -1.186382999999999965e+00 -5.478659999999999641e-01 -3.884090000000000042e-01 -1.140956000000000081e+00 2.117910000000000070e-01 1.939230000000000120e-01 -3.329489999999999950e-01 3.303460999999999981e+00 4.024409999999999599e+00 1.642775000000000096e+00 -3.814941000000000138e+00 -4.671289999999999942e+00 -9.120369999999999866e-01 1.487799999999999956e-01 -1.215200000000000030e-01 -5.762709999999999777e-01
6.618230000000000501e-01 3.135399999999999993e-02 -1.564820000000000100e-01 -2.994959999999999845e-01 5.632169999999999677e-01 3.092840000000000034e-01 -9.340299999999999991e-02 -1.956499999999999906e-02 -6.521320000000000450e-01 1.666350000000000053e-01 2.942480000000000095e-01 -3.989800000000000013e-01 2.329489999999999894e-01 4.977119999999999878e-01 -4.290700000000000069e-02 5.717609999999999637e-01 1.560519999999999963e-01 -3.858369999999999855e-01 2.473829999999999918e-01 2.060609999999999942e-01 -2.835260000000000002e-01 -5.161900000000000377e-01 1.070389999999999953e-01 -8.154670000000000529e-01 -2.307849999999999902e-01 -3.232140000000000013e-01 1.606819999999999915e-01 -3.563919999999999866e-01 -9.874800000000000244e-02 7.953879999999999839e-01 3.669100000000000139e-02 1.019230999999999998e+00 -3.368100000000000260e-02 2.685779999999999834e-01 -1.018126000000000086e+00 -4.204169999999999852e-01 4.044389999999999930e-01 -5.356070000000000553e-01 -5.194000000000000006e-02 -4.978460000000000107e-01 -1.321960000000000079e-01 -2.068929999999999936e-01 1.319400000000000017e-01 -4.081699999999999773e-01 3.219759999999999844e-01 -2.779699999999999879e-02 3.347010000000000263e-01 3.609479999999999911e-01 -4.375669999999999837e-01 -1.283824999999999994e+00 2.230290000000000050e-01 6.032889999999999642e-01 -5.439709999999999823e-01 1.009199999999999958e-01 2.150219999999999909e-01 1.965179999999999982e-01 2.618119999999999892e-01 -1.081034000000000050e+00 9.572880000000000278e-01 9.142240000000000366e-01
-9.709830000000000405e-01 4.136520000000000197e-01 7.262899999999999912e-02 9.688050000000000272e-01 -7.228510000000000213e-01 -7.969230000000000480e-01 1.970810000000000062e-01 -1.368199999999999972e-01 -5.741299999999999876e-02 -6.627439999999999998e-01 -3.673020000000000174e-01 9.793779999999999708e-01 1.440198000000000089e+00 -5.791319999999999801e-01 -5.870600000000000124e-02 -8.404499999999999471e-02 2.902379999999999960e-01 -7.430699999999999805e-02 8.265100000000000224e-02 -1.833930000000000005e-01 6.214819999999999789e-01 -2.219009999999999871e-01 2.211019999999999930e-01 -6.833000000000000185e-02 -2.776939999999999964e-01 6.188280000000000447e-01 -3.543290000000000051e-01 2.946110000000000118e-01 -3.061710000000000265e-01 2.136699999999999988e-01 1.346786999999999956e+00 3.154900000000000065e-02 -1.073275999999999897e+00 -6.811819999999999542e-01 7.339649999999999785e-01 5.594700000000000228e-01 -5.100170000000000536e-01 -3.208420000000000161e-01 1.284408999999999912e+00 -7.602799999999999558e-01 -1.039887000000000006e+00 5.172679999999999501e-01 2.164379999999999915e-01 1.316135000000000055e+00 -7.842329999999999579e-01 8.769399999999999418e-02 -2.570560000000000067e-01 -5.675400000000000444e-01 9.480399999999999938e-02 -2.364700000000000135e-01 -1.386489999999999945e-01 2.826290000000000191e-01 1.317699999999999948e-02 -4.032529999999999726e-01 -6.959400000000000031e-01 5.252729999999999899e-01 -1.155499999999999999e-01 -1.469119999999999870e-01 -1.399399999999999950e-02 2.442020000000000024e-01
1.037895999999999930e+00 -3.832789999999999808e-01 3.373610000000000220e-01 -1.083728999999999942e+00 9.201230000000000242e-01 2.038568000000000158e+00 -4.240070000000000228e-01 -3.667590000000000017e-01 1.264589999999999881e-01 -9.395050000000000345e-01 5.269589999999999552e-01 1.120344999999999924e+00 6.069430000000000103e-01 2.404810000000000003e-01 1.331040000000000001e-01 -1.731979999999999908e-01 -8.465999999999999914e-02 -5.953279999999999683e-01 2.805030000000000023e-01 -1.561223000000000027e+00 8.855999999999999983e-02 -2.099280000000000035e-01 1.063765000000000072e+00 -2.366000000000000048e-02 -4.601040000000000130e-01 2.191200000000000092e-01 -2.018330000000000124e-01 8.641539999999999777e-01 -7.034310000000000285e-01 -3.390810000000000213e-01 -3.864119999999999777e-01 4.037499999999999978e-01 5.645289999999999475e-01 1.357510999999999912e+00 -9.917259999999999964e-01 -1.985010000000000108e-01 1.399910000000000043e-01 -1.871649999999999980e-01 -6.440249999999999586e-01 1.541959999999999997e-01 -2.871900000000000008e-01 -1.611004000000000103e+00 3.046510000000000051e-01 -9.465700000000000502e-02 -4.323859999999999926e-01 -4.651419999999999999e-01 -3.283440000000000247e-01 -4.948130000000000028e-01 -2.852109999999999923e-01 7.791550000000000420e-01 5.107049999999999645e-01 -4.954900000000000276e-02 -8.677500000000000491e-02 -1.878489999999999882e-01 -5.392069999999999919e-01 5.615369999999999528e-01 -5.490410000000000013e-01 2.701489999999999725e-01 3.603190000000000004e-01 3.578899999999999859e-01
-4.107750000000000012e-01 -4.593519999999999825e-01 -2.043490000000000029e-01 -1.558329999999999993e-01 -5.567710000000000159e-01 2.710800000000000015e-02 -1.721590000000000065e-01 8.017290000000000250e-01 -1.107188000000000061e+00 6.029060000000000530e-01 6.022560000000000136e-01 1.229298000000000002e+00 1.062753999999999976e+00 1.990820000000000090e-01 2.687510000000000177e-01 -9.142069999999999919e-01 -1.352727000000000013e+00 1.775368000000000057e+00 4.166329999999999756e-01 1.205087000000000019e+00 7.329700000000000104e-02 -1.482690000000000119e-01 3.262390000000000012e-01 -2.943250000000000033e-01 1.790797999999999890e+00 -5.826729999999999965e-01 1.541400000000000062e-02 3.305429999999999757e-01 6.717410000000000325e-01 -6.906269999999999909e-01 -9.043299999999999950e-02 5.998599999999999766e-02 2.627220000000000111e-01 -1.111339999999999967e-01 -8.816799999999999637e-02 5.937590000000000368e-01 3.498660000000000103e-01 -7.694260000000000543e-01 -6.051659999999999817e-01 -1.599375999999999909e+00 -3.076429999999999998e-01 2.901940000000000075e-01 -8.182500000000000329e-01 -9.007579999999999476e-01 1.086189999999999933e-01 7.303790000000000004e-01 1.413877000000000050e+00 -1.558874000000000093e+00 -6.453149999999999720e-01 -1.294183000000000083e+00 -8.392399999999999860e-02 -3.863659999999999872e-01 -7.401020000000000376e-01 3.057329999999999770e-01 3.971939999999999915e-01 6.257430000000000492e-01 -8.784300000000000441e-02 -2.289549999999999919e-01 1.146063000000000054e+00 -3.179669999999999996e-01
1.637440000000000007e-01 8.892529999999999601e-01 -3.213250000000000273e-01 -8.601699999999999902e-01 -7.574840000000000462e-01 -3.123770000000000158e-01 1.018480999999999970e+00 7.466540000000000399e-01 -9.929660000000000153e-01 4.347159999999999913e-01 -6.816339999999999621e-01 -2.417626999999999970e+00 9.770609999999999573e-01 -5.337410000000000210e-01 -7.502860000000000085e-01 1.268189999999999873e-01 -5.038989999999999858e-01 1.129020000000000024e-01 -1.053510000000000002e-01 -1.324810000000000043e+00 -8.607540000000000191e-01 1.274972999999999912e+00 -8.306839999999999780e-01 -3.357589999999999741e-01 -1.341479999999999895e-01 -6.403900000000000148e-01 6.942300000000000137e-01 1.280920000000000114e-01 3.597299999999999803e-02 4.772290000000000143e-01 -1.010490000000000110e+00 8.246499999999999941e-01 4.127270000000000105e-01 1.102316999999999991e+00 -9.019509999999999472e-01 7.195270000000000277e-01 -6.075829999999999842e-01 2.569000000000000172e-01 -4.717919999999999892e-01 -3.841780000000000195e-01 4.049619999999999886e-01 1.108899000000000079e+00 -9.607560000000000544e-01 -9.983000000000000554e-03 9.952440000000000175e-01 -1.073449999999999960e-01 1.575870000000000049e-01 6.169620000000000104e-01 -1.625226000000000059e+00 5.319129999999999692e-01 -1.778339999999999921e-01 1.497185999999999906e+00 -2.705000000000000113e-02 6.811100000000000487e-02 2.579790000000000139e-01 8.954159999999999897e-01 5.979360000000000230e-01 -1.186121999999999899e+00 1.468317000000000094e+00 8.369529999999999470e-01