-6.597280969000000539e+01
-6.414534064000000058e+01
-6.404794959000000176e+01
-6.495085362999999745e+01
-6.424290209999999490e+01
-6.564037847000000170e+01
-6.455538262999999688e+01
-6.390149440999999797e+01
-6.494364344999999616e+01
-6.478662110999999868e+01
-6.547241893999999718e+01
-6.525143260999999484e+01
-6.368667536000000240e+01
-6.468203169000000230e+01
-6.457462929000000429e+01
-6.397617962000000347e+01
-6.745251738000000330e+01
-6.598036528000000089e+01
-6.405690712999999903e+01
-6.363206293999999730e+01
-6.440107645000000502e+01
-6.603778196999999750e+01
-6.378574980999999866e+01
-6.501200921999999593e+01
-6.548324107999999910e+01
-6.429203966000000037e+01
-6.658340728999999669e+01
-6.567449768000000176e+01
-6.577525532999999314e+01
-6.747636009999999374e+01
-6.874238144000000261e+01
-6.518004747999999893e+01
-6.939896034000000213e+01
-6.689014548000000104e+01
-6.426200733000000298e+01
-6.391279430000000161e+01
-6.613465358999999921e+01
-6.449516821000000277e+01
-6.499951640000000452e+01
-6.527283588000000236e+01
-6.605329858999999715e+01
-6.544298043999999948e+01
-6.513244143000000008e+01
-6.287449605999999847e+01
-6.498896808000000647e+01
-6.491819678999999610e+01
-6.507454370000000665e+01
-6.367780284999999907e+01
-6.451532702999999458e+01
-6.544848188999999650e+01
-6.592705460000000528e+01
-6.517270403999999928e+01
-6.522371671999999876e+01
-6.584717519999999524e+01
-6.572659975000000543e+01
-6.596195905000000437e+01
