5.538369999999999571e+00 1.660490000000000022e+00 3.896299999999999764e-01 3.482149999999999856e+00 5.381960000000000299e+00 8.788000000000000256e-01 1.908109999999999973e+00 2.050780000000000047e+00 1.507290000000000019e+00 -6.359399999999999498e-01 5.232479999999999798e+00 1.349969999999999892e+00 5.753219999999999779e+00 3.543039999999999967e+00 4.866810000000000080e+00 7.678720000000000212e+00 3.148000000000000242e-01 4.816270000000000273e+00 1.644530000000000047e+00 4.665740000000000443e+00 5.339920000000000222e+00 3.636099999999999888e+00 6.522000000000000020e-01 5.843379999999999797e+00 5.636669999999999625e+00 3.534730000000000150e+00 2.753415999999999997e+01 -1.086700000000000027e-01 9.005000000000000504e-02 2.777176000000000045e+01 1.374900000000000011e+00 3.970899999999999874e+00 2.778265999999999991e+01 3.368980000000000086e+00 -1.109099999999999947e-01 2.762506000000000128e+01 6.116520000000000401e+00 1.571870000000000100e+00 6.834360000000000213e+00 4.031640000000000335e+00 5.286889999999999645e+00 6.353369999999999962e+00 1.373909999999999965e+00 1.758270000000000000e+00 5.954649999999999999e+00 -7.792400000000000437e-01 5.140069999999999695e+00 6.763829999999999565e+00 -2.652420000000000222e+00 6.091050000000000075e+00 2.707310000000000105e+00 -3.617699999999999805e-01 2.853009999999999824e+00 2.993139999999999912e+00 1.552040000000000086e+00 6.333179999999999588e+00 3.326740000000000030e+00 4.472739999999999938e+00 1.420979999999999910e+00 2.852450000000000152e+00
5.999990000000000379e+00 1.270820000000000061e+00 2.628197000000000116e+01 4.371249999999999858e+00 5.115059999999999718e+00 9.011500000000000066e-01 -1.051479999999999970e+00 2.376759999999999984e+00 2.473399999999999821e+00 2.654420000000000002e+00 1.191519999999999913e+00 2.753837000000000046e+01 5.889870000000000161e+00 3.676219999999999821e+00 5.802850000000000286e+00 7.242320000000000313e+00 1.039999999999999952e-02 6.349709999999999965e+00 1.191140000000000088e+00 3.499390000000000001e+00 6.339970000000000105e+00 2.185909999999999798e+00 1.249699999999999978e-01 4.022090000000000387e+00 -5.813099999999999934e-01 2.976910000000000167e+00 2.742224999999999824e+01 -3.415939999999999976e+00 6.608060000000000045e+00 2.666086999999999918e+01 1.534939999999999971e+00 4.050799999999999734e+00 1.337029999999999941e+00 3.934099999999999930e+00 1.823520000000000030e+00 2.501197000000000159e+01 5.250110000000000277e+00 1.489000000000000101e+00 7.118439999999999657e+00 3.573490000000000055e+00 4.430819999999999759e+00 7.045320000000000249e+00 1.391280000000000072e+00 1.108370000000000077e+00 6.800279999999999880e+00 -6.940300000000000358e-01 5.597830000000000084e+00 6.464360000000000106e+00 1.381399999999999961e+00 3.623990000000000045e+00 3.848460000000000214e+00 4.275540000000000340e+00 3.357800000000000229e-01 8.046299999999999564e-01 7.149670000000000414e+00 -2.622999999999999984e-02 3.386219999999999786e+00 5.227719999999999700e+00 4.061609999999999943e+00 3.323030000000000150e+00
4.415040000000000298e+00 1.618519999999999959e+00 1.854999999999999982e+00 2.840199999999999836e+00 5.779959999999999987e+00 1.240420000000000078e+00 4.088399999999999812e-01 2.109239999999999782e+00 2.468700000000000061e-01 -1.760010000000000074e+00 5.179149999999999920e+00 8.804100000000000259e-01 2.501999999999999780e-01 2.719160000000000021e+00 4.752869999999999706e+00 -2.312759999999999927e+00 5.942879999999999718e+00 5.234759999999999636e+00 3.968249999999999833e+00 2.898420000000000218e+00 5.600609999999999644e+00 2.043649999999999967e+00 6.667119999999999713e+00 6.136190000000000033e+00 4.205639999999999823e+00 3.738179999999999836e+00 1.053599999999999953e-01 5.726939999999999920e+00 1.333879999999999955e+00 2.918815000000000026e+01 3.235999999999999988e-01 5.467439999999999856e+00 2.890344999999999942e+01 1.919669999999999987e+00 9.548200000000000021e-01 2.926354999999999862e+01 2.583999999999999839e-02 4.239700000000000135e-01 6.560760000000000147e+00 -1.780380000000000074e+00 3.756170000000000009e+00 6.459749999999999659e+00 3.660429999999999851e+00 6.611299999999999955e-01 6.671820000000000306e+00 1.820899999999999963e+00 3.939039999999999875e+00 6.910980000000000345e+00 -1.012610000000000010e+00 3.030110000000000081e+00 2.485520000000000174e+00 -2.278570000000000206e+00 7.064020000000000188e+00 3.386050000000000004e+00 2.900900000000000034e+00 3.112729999999999997e+00 3.376360000000000028e+00 9.518400000000000194e-01 6.784639999999999560e+00 3.474660000000000082e+00
5.852599999999999802e+00 1.312449999999999894e+00 2.797935999999999979e+01 5.404139999999999944e+00 4.811110000000000220e+00 2.826155999999999935e+01 -1.279060000000000086e+00 2.572299999999999809e+00 2.713690000000000158e+00 2.909050000000000136e+00 1.127140000000000031e+00 2.806505999999999901e+01 5.176230000000000331e+00 3.642980000000000107e+00 6.564490000000000158e+00 7.705980000000000274e+00 3.172099999999999920e-01 5.882060000000000066e+00 1.191030000000000033e+00 3.549090000000000078e+00 5.889999999999999680e+00 2.794150000000000134e+00 9.205299999999999594e-01 4.195479999999999876e+00 -1.215270000000000072e+00 3.673150000000000137e+00 2.794099999999999917e-01 1.404600000000000015e-01 6.692099999999999715e-01 1.179599999999999954e-01 2.302509999999999835e+00 3.829390000000000072e+00 1.055600000000000094e+00 4.485800000000000232e+00 2.285369999999999902e+00 2.617126000000000019e+01 5.366380000000000372e+00 1.093569999999999931e+00 7.061799999999999855e+00 3.025589999999999780e+00 4.981460000000000221e+00 7.209509999999999863e+00 1.644200000000000106e+00 9.470199999999999729e-01 6.887170000000000236e+00 -5.858600000000000474e-01 4.705829999999999735e+00 7.166059999999999874e+00 1.524920000000000053e+00 3.243749999999999911e+00 3.383799999999999919e+00 2.033399999999999930e-01 6.981569999999999609e+00 8.008800000000000363e-01 7.088680000000000092e+00 9.321000000000000119e-02 3.354900000000000215e+00 5.060710000000000264e+00 4.170029999999999681e+00 3.860040000000000138e+00
-9.688200000000000145e-01 2.305449999999999999e+00 2.755441000000000074e+01 4.768950000000000244e+00 4.532040000000000290e+00 5.761000000000000149e-02 3.105100000000000193e+00 1.807819999999999983e+00 2.716799999999999771e-01 5.404399999999999871e+00 1.477780000000000094e+00 3.315490000000000048e+00 -1.124060000000000059e+00 4.784950000000000259e+00 3.565990000000000215e+00 2.942429999999999879e+00 6.717859999999999943e+00 6.208739999999999704e+00 1.326259999999999994e+00 3.119369999999999976e+00 5.595399999999999707e+00 -8.372600000000000042e-01 7.109320000000000306e+00 5.891969999999999708e+00 -1.108230000000000048e+00 4.862569999999999837e+00 2.774771000000000143e+01 7.752200000000000202e-01 3.234600000000000253e-01 2.780251000000000161e+01 2.792590000000000128e+00 3.948809999999999931e+00 2.630820999999999898e+01 5.338320000000000398e+00 6.929100000000000259e-01 4.344899999999999873e-01 5.499929999999999986e+00 1.474010000000000042e+00 6.261289999999999800e+00 3.232439999999999980e+00 4.239230000000000054e+00 6.827820000000000000e+00 1.034310000000000063e+00 8.425300000000000011e-01 6.930570000000000341e+00 -1.243819999999999926e+00 4.662709999999999688e+00 6.182760000000000034e+00 2.057799999999999851e+00 6.059219999999999828e+00 3.791430000000000078e+00 4.575330000000000119e+00 3.966860000000000053e+00 2.703549999999999898e+00 2.933800000000000185e+00 2.264200000000000101e-01 3.218389999999999862e+00 1.267050000000000010e+00 3.808320000000000149e+00 3.050860000000000127e+00
1.119040000000000035e+00 5.564129999999999576e+00 6.770800000000000152e-01 3.786560000000000148e+00 1.982969999999999899e+00 5.269099999999999895e-01 -3.410629999999999828e+00 6.100329999999999586e+00 8.390499999999999625e-01 7.228979999999999961e+00 1.597159999999999913e+00 1.751260000000000039e+00 -1.006480000000000041e+00 6.401670000000000194e+00 6.049170000000000158e+00 1.351050000000000084e+00 2.561749999999999972e+00 5.565070000000000405e+00 3.495480000000000143e+00 6.039369999999999905e+00 5.185609999999999609e+00 5.825339999999999741e+00 2.424570000000000114e+00 5.357759999999999856e+00 5.444980000000000153e+00 1.048599999999999977e+00 2.822917999999999950e+01 3.049609999999999932e+00 5.327410000000000423e+00 2.861698000000000164e+01 2.858589999999999964e+00 5.274359999999999715e+00 2.842299999999999827e+00 1.040960000000000107e+00 1.934050000000000047e+00 2.904126000000000118e+01 5.351499999999999702e+00 4.933740000000000236e+00 6.701369999999999827e+00 -3.203099999999999836e-01 8.927899999999999725e-01 6.706629999999999647e+00 1.366679999999999895e+00 5.598510000000000097e+00 6.600369999999999848e+00 3.360939999999999817e+00 1.544799999999999951e+00 6.943620000000000125e+00 5.006300000000000194e-01 3.282519999999999882e+00 3.097129999999999939e+00 -8.474800000000000111e-01 6.384599999999999831e+00 3.409170000000000034e+00 4.813579999999999970e+00 9.828200000000000269e-01 3.304170000000000051e+00 -1.366489999999999982e+00 4.539520000000000444e+00 2.927500000000000102e-01
3.262420000000000098e+00 1.379180000000000073e+00 2.135260000000000158e+00 1.596200000000000063e+00 4.240409999999999791e+00 8.199600000000000222e-01 3.801369999999999916e+00 6.248870000000000147e+00 2.807519999999999882e+01 5.641379999999999839e+00 4.164570000000000327e+00 7.665999999999999481e-01 2.225999999999999923e-01 5.053469999999999906e+00 5.134909999999999641e+00 1.883029999999999982e+00 9.324099999999999611e-01 6.139649999999999608e+00 4.687839999999999563e+00 5.167670000000000208e+00 4.452630000000000088e+00 5.940380000000000216e+00 1.290380000000000082e+00 5.052539999999999587e+00 3.497710000000000097e+00 1.902840000000000087e+00 2.806889999999999930e+01 1.734930000000000083e+00 5.601770000000000138e+00 2.739740000000000109e+01 -4.229100000000000081e-01 2.255790000000000184e+00 2.780600000000000094e+01 -2.032509999999999817e+00 5.799830000000000041e+00 2.811540000000000106e+01 -4.441800000000000193e-01 2.368819999999999926e+00 6.511650000000000382e+00 -2.489360000000000017e+00 5.678429999999999644e+00 6.780750000000000277e+00 4.081889999999999574e+00 2.368209999999999926e+00 6.470629999999999882e+00 2.113199999999999967e+00 5.796439999999999593e+00 6.414270000000000138e+00 8.235299999999999843e-01 4.059099999999999930e-01 3.651089999999999947e+00 -1.420879999999999921e+00 4.136809999999999654e+00 3.083040000000000003e+00 5.328369999999999607e+00 1.661499999999999921e-01 2.893409999999999815e+00 2.482870000000000132e+00 4.265950000000000131e+00 3.224610000000000198e+00
1.563490000000000046e+00 6.437199999999999811e+00 1.618109999999999937e+00 1.592099999999999904e-01 2.641539999999999999e+00 1.044359999999999955e+00 -2.095479999999999787e+00 6.961769999999999570e+00 1.209400000000000031e+00 4.107840000000000380e+00 2.725909999999999833e+00 8.266000000000000014e-01 5.436359999999999637e+00 4.010760000000000325e+00 5.520889999999999631e+00 -8.541999999999999593e-02 5.437400000000000011e-01 5.447960000000000136e+00 1.226669999999999927e+00 3.956589999999999829e+00 5.513790000000000191e+00 3.909139999999999837e+00 6.754799999999999693e-01 5.123990000000000045e+00 7.803650000000000198e+00 2.629600000000000271e-01 3.879900000000000015e-01 1.968460000000000099e+00 3.697119999999999962e+00 2.934127000000000152e+01 4.186790000000000234e+00 3.557299999999999907e-01 2.945567000000000135e+01 -1.964960000000000040e+00 3.952630000000000088e+00 2.971781999999999968e+01 1.738920000000000021e+00 6.782110000000000305e+00 6.265410000000000146e+00 3.436879999999999935e+00 2.960510000000000197e+00 6.971700000000000230e+00 -2.219390000000000196e+00 6.633569999999999744e+00 6.307389999999999830e+00 -5.744799999999999907e-01 2.719069999999999876e+00 7.131219999999999892e+00 3.085230000000000139e+00 2.290729999999999933e+00 3.090990000000000126e+00 -4.200699999999999990e-01 5.699629999999999974e+00 3.108099999999999863e+00 -3.125600000000000045e-01 3.108919999999999906e+00 3.634860000000000202e+00 3.751250000000000195e+00 6.029169999999999696e+00 3.124260000000000037e+00
-6.866100000000000536e-01 3.285109999999999975e+00 2.116319999999999979e+01 4.483920000000000350e+00 1.076510000000000078e+00 2.395639999999999858e+01 3.724639999999999951e+00 3.729080000000000172e+00 1.008319999999999972e+01 1.953640000000000043e+00 1.333790000000000031e+00 2.115240000000000009e+01 1.704879999999999951e+00 1.577299999999999924e+00 7.434040000000000425e+00 2.497320000000000206e+00 6.191230000000000011e+00 7.447300000000000253e+00 -2.427529999999999966e+00 5.194960000000000022e+00 2.389000000000000057e+01 -7.234999999999999765e-02 5.475690000000000168e+00 9.695899999999999963e+00 -2.392389999999999795e+00 5.308559999999999945e+00 2.124350000000000094e+01 1.812799999999999967e-01 3.011849999999999916e+00 2.395179999999999865e+01 2.230879999999999974e+00 5.628510000000000346e+00 2.539339999999999975e+01 4.571069999999999744e+00 9.478400000000000158e-01 2.117429999999999879e+01 2.324520000000000142e+00 6.160230000000000317e+00 1.001870000000000083e+01 -1.145270000000000010e+00 3.924510000000000165e+00 1.148559999999999981e+01 -3.100399999999999823e-01 1.391599999999999948e+00 5.670079999999999565e+00 2.040500000000000203e+00 1.542440000000000033e+00 9.888299999999999201e+00 3.807339999999999947e+00 3.737480000000000135e+00 7.371039999999999814e+00 -4.022700000000000164e-01 5.416640000000000121e+00 7.031320000000000014e+00 1.033609999999999918e+00 3.044090000000000185e+00 1.930089999999999861e+01 2.202749999999999986e+00 1.929480000000000084e+00 2.500390000000000157e+01
-2.980140000000000011e+00 6.598539999999999850e+00 9.320500000000000451e-01 -8.816599999999999993e-01 2.892479999999999940e+00 1.416789999999999994e+00 1.552280000000000104e+00 7.136820000000000164e+00 1.276990000000000069e+00 3.102149999999999963e+00 2.879039999999999822e+00 1.246599999999999930e+00 4.122550000000000381e+00 5.093860000000000277e+00 4.930530000000000079e+00 5.690389999999999837e+00 1.593960000000000043e+00 4.938119999999999621e+00 -4.189200000000000146e-01 4.968449999999999811e+00 5.462040000000000006e+00 1.774780000000000024e+00 1.576109999999999900e+00 5.697119999999999962e+00 8.045200000000000129e-01 1.592370000000000063e+00 2.868982000000000099e+01 -7.518500000000000183e-01 5.385019999999999918e+00 3.071400000000000241e-01 5.377200000000000202e+00 1.478169999999999984e+00 2.858081999999999923e+01 3.449570000000000025e+00 5.151189999999999714e+00 1.350399999999999934e-01 4.151410000000000267e+00 3.130040000000000155e+00 6.662349999999999994e+00 1.760159999999999947e+00 6.365339999999999776e+00 5.610899999999999999e+00 -2.376800000000000024e-01 2.845380000000000020e+00 6.644499999999999851e+00 -2.446369999999999933e+00 6.456349999999999589e+00 6.804240000000000066e+00 -2.136379999999999946e+00 5.072669999999999568e+00 3.192520000000000024e+00 1.323739999999999917e+00 2.966130000000000155e+00 3.244390000000000107e+00 -2.657100000000000017e-01 8.240600000000000147e-01 3.016080000000000094e+00 4.037560000000000038e+00 1.060670000000000002e+00 3.221379999999999910e+00
1.212690000000000046e+00 5.805200000000000360e-01 1.796800000000000064e-01 4.670689999999999564e+00 1.363550000000000040e+00 1.639440000000000008e+00 -5.565999999999999837e-01 4.491609999999999658e+00 4.600600000000000245e-01 3.528319999999999901e+00 4.695339999999999847e+00 8.012500000000000178e-01 4.972940000000000360e+00 3.679000000000000048e-01 5.479479999999999684e+00 -1.041080000000000005e+00 4.159320000000000128e+00 6.221420000000000172e+00 -7.490000000000000130e-03 5.461899999999999533e-01 4.958929999999999616e+00 2.715640000000000054e+00 3.609100000000000197e+00 4.933559999999999945e+00 9.147899999999999920e-01 6.039740000000000109e+00 2.813685999999999865e+01 2.562440000000000051e+00 2.538510000000000044e+00 2.798376000000000019e+01 -3.246370000000000200e+00 5.367049999999999876e+00 2.740005999999999986e+01 -1.461980000000000057e+00 2.004900000000000126e+00 2.828804999999999836e+01 1.091960000000000042e+00 5.119069999999999787e+00 7.227109999999999701e+00 2.472480000000000011e+00 1.282010000000000094e+00 5.940500000000000114e+00 4.307599999999999874e+00 5.347800000000000331e+00 6.527059999999999640e+00 6.748870000000000147e+00 1.505859999999999976e+00 7.226580000000000226e+00 2.355679999999999996e+00 2.694900000000000073e-01 2.370579999999999909e+00 1.871979999999999977e+00 6.544959999999999667e+00 3.195250000000000146e+00 -5.853899999999999659e-01 3.424690000000000012e+00 3.690690000000000026e+00 5.238240000000000229e+00 3.335999999999999854e+00 3.336840000000000028e+00
5.581039999999999779e+00 3.784199999999999786e-01 2.515499999999999847e+00 3.193000000000000005e-02 5.094350000000000378e+00 2.825418000000000163e+01 2.172740000000000116e+00 1.721970000000000001e+00 8.982999999999999319e-02 3.580499999999999794e+00 4.720720000000000027e+00 8.404099999999999904e-01 5.659790000000000099e+00 2.170300000000000118e+00 6.475270000000000081e+00 3.183710000000000040e+00 5.358489999999999753e+00 5.866170000000000329e+00 2.307479999999999976e+00 1.474599999999999911e+00 4.003499999999999837e+00 -4.662799999999999723e-01 5.744979999999999976e+00 6.446620000000000239e+00 6.662500000000000089e-01 2.844969999999999999e+00 2.714377999999999957e+01 2.009049999999999780e+00 6.590629999999999988e+00 2.877697999999999823e+01 4.528850000000000264e+00 2.561179999999999790e+00 2.869157999999999831e+01 -2.330719999999999903e+00 6.334200000000000053e+00 2.853577999999999903e+01 2.095149999999999846e+00 2.684899999999999842e+00 6.324279999999999902e+00 1.619229999999999947e+00 6.931119999999999948e+00 7.815649999999999764e+00 -1.901850000000000041e+00 4.325389999999999624e+00 8.087440000000000850e+00 4.332199999999999940e-01 9.334400000000000475e-01 6.075719999999999565e+00 1.394539999999999891e+00 3.226529999999999898e+00 1.946299999999999919e+00 -8.655300000000000216e-01 6.289640000000000342e+00 3.940189999999999859e+00 5.004870000000000374e+00 2.842630000000000212e+00 3.929479999999999862e+00 3.175679999999999836e+00 5.934280000000000221e+00 3.388360000000000039e+00
5.983719999999999928e+00 1.207610000000000072e+00 2.652056999999999931e+01 4.161170000000000258e+00 5.181280000000000108e+00 9.310399999999999787e-01 -8.761299999999999644e-01 2.424310000000000187e+00 2.502909999999999968e+00 2.691660000000000164e+00 1.163689999999999891e+00 2.741167000000000087e+01 5.926910000000000345e+00 3.839379999999999793e+00 6.120040000000000369e+00 3.417159999999999975e+00 6.918669999999999654e+00 6.204519999999999591e+00 1.157550000000000079e+00 3.686720000000000219e+00 6.421310000000000073e+00 1.868970000000000020e+00 6.528000000000000469e-02 4.096079999999999721e+00 -4.996800000000000130e-01 3.055800000000000072e+00 2.734066999999999936e+01 4.637290000000000134e+00 6.443389999999999951e+00 2.646197000000000088e+01 1.589590000000000058e+00 4.143810000000000215e+00 1.060009999999999897e+00 3.921850000000000058e+00 1.635499999999999954e+00 2.502386999999999873e+01 5.220200000000000173e+00 1.524729999999999919e+00 7.012590000000000323e+00 3.664000000000000146e+00 4.508090000000000153e+00 7.194280000000000008e+00 1.503759999999999986e+00 8.724800000000000333e-01 7.117110000000000269e+00 -6.474199999999999955e-01 5.783520000000000216e+00 6.499719999999999942e+00 1.450979999999999936e+00 3.604929999999999968e+00 3.572299999999999809e+00 4.314470000000000027e+00 3.995099999999999763e-01 8.727099999999999858e-01 3.298970000000000180e+00 6.940509999999999735e+00 3.296959999999999891e+00 5.263080000000000425e+00 3.929949999999999832e+00 3.306560000000000166e+00
-3.867800000000000127e-01 6.654219999999999580e+00 7.149999999999999412e-02 1.395529999999999937e+00 1.875439999999999996e+00 2.196369999999999933e+00 8.599520000000000053e+00 -2.254800000000000137e-01 2.904371000000000080e+01 5.086120000000000196e+00 3.042590000000000128e+00 1.236920000000000019e+00 -5.930800000000000516e-01 4.713770000000000238e+00 6.249810000000000088e+00 1.909659999999999913e+00 9.061399999999999455e-01 5.886359999999999815e+00 3.897349999999999870e+00 4.245390000000000441e+00 6.456030000000000157e+00 6.535929999999999573e+00 1.004769999999999941e+00 4.594129999999999825e+00 2.964309999999999778e+00 2.114230000000000054e+00 4.503999999999999670e-02 2.635660000000000114e+00 5.938850000000000406e+00 2.726281000000000176e+01 -8.610700000000000021e-01 2.485630000000000006e+00 3.967300000000000271e-01 -1.773249999999999993e+00 5.527689999999999770e+00 2.903001000000000076e+01 -3.187400000000000233e-01 2.434810000000000141e+00 7.221180000000000376e+00 -2.896389999999999798e+00 5.998210000000000264e+00 7.464470000000000383e+00 4.121640000000000192e+00 1.740650000000000031e+00 7.148240000000000371e+00 1.467859999999999943e+00 6.209139999999999660e+00 6.820649999999999658e+00 1.882249999999999979e+00 4.184910000000000352e+00 3.277839999999999865e+00 1.458730000000000082e+00 6.418829999999999814e+00 2.040939999999999976e+00 5.691539999999999822e+00 3.778669999999999973e+00 3.737039999999999917e+00 -2.225709999999999855e+00 6.992689999999999628e+00 3.604769999999999808e+00
4.340000000000000108e-02 5.642940000000000289e+00 2.933825999999999823e+01 1.987239999999999895e+00 1.711200000000000054e+00 2.915345999999999904e+01 2.364599999999999813e+00 3.651409999999999823e+00 3.185890000000000111e+00 6.744620000000000282e+00 2.000620000000000065e+00 2.900565999999999889e+01 3.595019999999999882e+00 4.574099999999999611e+00 6.429280000000000328e+00 5.259700000000000486e-01 6.971300000000000274e+00 5.093180000000000263e+00 -5.201000000000000068e-02 3.820899999999999852e-01 4.698550000000000004e+00 -8.880500000000000060e-01 2.539280000000000204e+00 7.192890000000000228e+00 4.344669999999999810e+00 7.731900000000000439e-01 2.894106000000000023e+01 2.891449999999999854e+00 3.332879999999999843e+00 6.406300000000000328e-01 -3.016880000000000006e+00 6.560109999999999886e+00 3.519100000000000006e-01 3.282399999999999762e-01 2.848800000000000221e+00 2.728305999999999898e+01 1.437570000000000014e+00 5.072849999999999859e+00 7.282980000000000231e+00 -3.636740000000000084e+00 7.472900000000000098e+00 7.418090000000000295e+00 4.383239999999999803e+00 5.317789999999999573e+00 3.866579999999999906e+00 5.240039999999999587e+00 3.897130000000000205e+00 8.342090000000000671e+00 2.388100000000000112e+00 1.442209999999999992e+00 4.605279999999999596e+00 5.672979999999999912e+00 1.952870000000000106e+00 4.648290000000000255e+00 -1.655690000000000106e+00 3.731240000000000112e+00 1.190600000000000103e+00 -1.682599999999999929e-01 5.158760000000000012e+00 3.235790000000000166e+00
6.564700000000000202e+00 2.081690000000000040e+00 2.727556999999999832e+01 4.925639999999999574e+00 5.122329999999999828e+00 6.397999999999999521e-02 2.879519999999999857e+00 1.874060000000000059e+00 3.628500000000000059e-01 5.268169999999999575e+00 1.114700000000000024e+00 3.775570000000000093e+00 -1.274960000000000093e+00 4.765060000000000073e+00 3.484090000000000131e+00 3.538569999999999993e+00 6.776690000000000325e+00 5.697339999999999627e+00 1.435829999999999940e+00 3.226119999999999877e+00 5.526919999999999611e+00 -7.876900000000000013e-01 7.012789999999999857e+00 6.412749999999999950e+00 -1.196450000000000014e+00 4.543910000000000338e+00 2.702076999999999884e+01 6.124699999999999589e-01 5.068000000000000282e-01 2.716526999999999958e+01 2.581500000000000128e+00 4.312599999999999767e+00 2.689286999999999850e+01 5.006170000000000009e+00 4.106899999999999995e-01 2.919700000000000073e-01 5.664860000000000007e+00 1.118139999999999912e+00 6.346799999999999997e+00 3.005389999999999784e+00 4.631890000000000285e+00 6.805790000000000006e+00 1.165990000000000082e+00 1.095750000000000002e+00 7.069259999999999877e+00 -1.259269999999999889e+00 4.508700000000000152e+00 6.460280000000000022e+00 -1.768599999999999894e-01 3.035599999999999965e-01 3.199460000000000193e+00 4.695890000000000342e+00 3.457450000000000134e+00 2.665210000000000079e+00 -1.215279999999999916e+00 7.213460000000000427e+00 3.417699999999999960e+00 3.386100000000000221e-01 2.624849999999999905e+00 3.222869999999999902e+00
5.477839999999999598e+00 1.688919999999999977e+00 3.047199999999999909e-01 3.551989999999999981e+00 5.369189999999999685e+00 8.551499999999999657e-01 1.829599999999999893e+00 2.056740000000000013e+00 1.578799999999999981e+00 -6.258099999999999774e-01 5.296960000000000335e+00 1.316510000000000069e+00 5.712979999999999947e+00 3.537450000000000205e+00 4.901699999999999946e+00 7.530610000000000248e+00 3.540400000000000214e-01 4.763219999999999565e+00 1.649450000000000083e+00 4.603489999999999860e+00 5.364539999999999864e+00 3.670020000000000060e+00 6.502799999999999692e-01 5.751380000000000159e+00 5.618459999999999788e+00 3.561189999999999856e+00 2.738135000000000119e+01 -6.436000000000000054e-02 7.857999999999999707e-02 2.758204999999999885e+01 1.399680000000000035e+00 3.928249999999999797e+00 2.758755000000000024e+01 3.303049999999999820e+00 -1.439199999999999924e-01 2.757274999999999920e+01 6.088510000000000311e+00 1.456579999999999986e+00 6.814350000000000129e+00 3.993729999999999780e+00 5.184379999999999988e+00 6.264439999999999564e+00 1.302189999999999959e+00 1.680989999999999984e+00 5.825669999999999682e+00 -7.513800000000000479e-01 5.080000000000000071e+00 6.669459999999999944e+00 -2.538660000000000139e+00 6.074029999999999596e+00 2.749390000000000001e+00 -3.536199999999999899e-01 2.948760000000000048e+00 3.090720000000000134e+00 1.554619999999999891e+00 6.195899999999999963e+00 3.345880000000000187e+00 4.395870000000000388e+00 1.400160000000000071e+00 2.780800000000000161e+00
4.893320000000000114e+00 3.662900000000000045e+00 2.404562999999999917e+01 2.255040000000000155e+00 1.133340000000000014e+00 2.423142999999999958e+01 5.684900000000000508e-01 3.469139999999999890e+00 2.152902999999999878e+01 5.792430000000000412e+00 7.605800000000000338e-01 2.156463000000000108e+01 -5.463500000000000023e-01 4.340329999999999799e+00 6.967130000000000045e+00 6.721650000000000347e+00 2.874300000000000188e-01 6.966190000000000104e+00 3.226750000000000007e+00 2.087590000000000057e+00 7.026970000000000383e+00 4.139859999999999651e+00 3.999500000000000277e-01 9.803829999999999600e+00 1.857550000000000034e+00 4.928420000000000023e+00 2.015882999999999825e+01 5.359969999999999679e+00 3.401619999999999866e+00 2.027602999999999867e+01 3.003490000000000215e+00 6.508169999999999789e+00 9.653729999999999478e+00 -1.737389999999999990e+00 4.788160000000000416e+00 5.131099999999999550e-01 2.720499999999999918e+00 2.526440000000000019e+00 9.733530000000000015e+00 -7.618800000000000017e-01 4.574180000000000135e+00 9.601829999999999643e+00 7.884799999999999587e-01 6.371870000000000367e+00 5.738240000000000229e+00 4.543940000000000090e+00 4.372130000000000294e+00 5.598930000000000184e+00 1.508739999999999970e+00 1.215300000000000047e+00 2.161752999999999858e+01 5.224520000000000053e+00 1.147350000000000092e+00 2.446182999999999907e+01 1.018299999999999983e+00 2.103889999999999816e+00 5.690179999999999794e+00 1.467189999999999994e+00 3.836739999999999817e+00 2.408242999999999867e+01
-2.532109999999999861e+00 6.876990000000000158e+00 9.647900000000000365e-01 1.588479999999999892e+00 6.019429999999999836e+00 4.017800000000000260e-01 5.348309999999999675e+00 2.575099999999999945e+00 1.972639999999999949e+00 3.169239999999999835e+00 4.792300000000000004e+00 2.873438000000000159e+01 2.282630000000000159e+00 2.566159999999999997e+00 6.885580000000000034e+00 3.076599999999999890e-01 5.691639999999999588e+00 6.948299999999999699e+00 7.086210000000000342e+00 1.299709999999999921e+00 4.876199999999999868e+00 4.576640000000000263e+00 4.881700000000000372e+00 4.507259999999999600e+00 7.641599999999999504e-01 3.996490000000000098e+00 2.847728000000000037e+01 3.313699999999999868e+00 7.231300000000000505e-01 2.920428000000000068e+01 -1.973610000000000086e+00 4.475340000000000096e+00 2.970000000000000070e-02 7.341639999999999944e+00 2.925099999999999922e-01 2.862407999999999930e+01 -1.993999999999999995e+00 7.118769999999999598e+00 7.161590000000000344e+00 -1.707500000000000129e-01 3.112830000000000208e+00 7.329150000000000276e+00 2.875080000000000080e+00 6.467459999999999987e+00 6.496529999999999916e+00 4.542989999999999640e+00 3.471940000000000026e+00 6.699900000000000411e+00 5.112169999999999881e+00 2.847199999999999731e-01 3.175949999999999829e+00 1.228860000000000063e+00 1.446500000000000008e-01 3.442930000000000046e+00 3.187590000000000146e+00 3.860059999999999825e+00 2.647530000000000161e+00 -1.333730000000000082e+00 3.785280000000000200e+00 3.810189999999999966e+00