1.986459999999999892e+00 1.143990000000000062e+00 1.157939999999999969e+01 -1.499999999999999869e-04 4.583149999999999835e+00 1.158039999999999914e+01 5.956050000000000288e+00 1.147799999999999931e+00 1.157779999999999987e+01 3.973009999999999931e+00 4.575849999999999973e+00 1.158530000000000015e+01 4.200000000000000174e-04 2.289029999999999898e+00 1.568270000000000053e+01 -1.985139999999999905e+00 5.729070000000000107e+00 1.568019999999999925e+01 3.972389999999999866e+00 2.283459999999999823e+00 1.568280000000000030e+01 1.984930000000000083e+00 5.726460000000000328e+00 1.568309999999999960e+01 3.963179999999999925e+00 6.872939999999999827e+00 1.013519999999999932e+01 5.951150000000000162e+00 3.432900000000000063e+00 1.013560000000000016e+01 -3.360000000000000139e-03 6.869460000000000122e+00 1.013700000000000045e+01 1.978730000000000100e+00 3.443659999999999943e+00 1.012819999999999965e+01 3.969850000000000101e+00 6.872609999999999886e+00 1.362839999999999918e+01 -1.981889999999999930e+00 3.434829999999999828e+00 1.363030000000000008e+01 -4.769999999999999934e-03 6.872139999999999915e+00 1.363339999999999996e+01 1.984520000000000062e+00 3.435620000000000118e+00 1.362599999999999945e+01 5.299999999999999807e-04 6.999999999999999929e-04 1.713179999999999836e+01 -1.983430000000000026e+00 3.439060000000000006e+00 1.713139999999999930e+01 3.964770000000000127e+00 9.000000000000000567e-05 1.713370000000000104e+01 1.977370000000000072e+00 3.434120000000000061e+00 1.712969999999999970e+01
1.983899999999999997e+00 1.148949999999999916e+00 1.158360000000000056e+01 -2.079999999999999818e-03 4.583149999999999835e+00 1.158159999999999989e+01 5.955429999999999779e+00 1.147370000000000001e+00 1.158159999999999989e+01 3.968939999999999912e+00 4.583990000000000009e+00 1.158070000000000022e+01 -1.399999999999999986e-03 2.293870000000000076e+00 1.568319999999999936e+01 -1.980809999999999960e+00 5.724520000000000053e+00 1.568260000000000076e+01 3.965780000000000083e+00 2.283840000000000092e+00 1.567740000000000045e+01 1.984720000000000040e+00 5.729709999999999859e+00 1.568079999999999963e+01 -3.967159999999999798e+00 6.871970000000000134e+00 1.013349999999999973e+01 -1.984639999999999960e+00 3.437910000000000021e+00 1.012959999999999994e+01 -8.199999999999999824e-04 6.868339999999999890e+00 1.013780000000000037e+01 1.984699999999999909e+00 3.437549999999999883e+00 1.013139999999999930e+01 1.100000000000000066e-03 2.599999999999999772e-04 1.363230000000000075e+01 -1.982480000000000020e+00 3.435140000000000082e+00 1.363049999999999962e+01 3.968010000000000037e+00 6.400000000000000524e-04 1.362880000000000003e+01 1.990280000000000049e+00 3.444380000000000219e+00 1.363339999999999996e+01 4.190000000000000148e-03 6.409999999999999899e-03 1.712999999999999901e+01 5.948000000000000398e+00 3.433359999999999967e+00 1.712610000000000099e+01 3.969580000000000108e+00 6.099999999999999737e-04 1.712979999999999947e+01 1.978939999999999921e+00 3.441409999999999858e+00 1.713340000000000174e+01
1.984490000000000087e+00 1.145960000000000090e+00 1.158089999999999975e+01 -2.170000000000000054e-03 4.579049999999999621e+00 1.157569999999999943e+01 5.953050000000000175e+00 1.149759999999999893e+00 1.158189999999999920e+01 3.968580000000000219e+00 4.584819999999999673e+00 1.157639999999999958e+01 -1.850000000000000082e-03 2.293730000000000047e+00 1.567980000000000018e+01 -1.981200000000000072e+00 5.734479999999999578e+00 1.568019999999999925e+01 3.968850000000000211e+00 2.295339999999999936e+00 1.568490000000000073e+01 1.980390000000000095e+00 5.728909999999999947e+00 1.568730000000000047e+01 3.966019999999999879e+00 6.867740000000000400e+00 1.013490000000000002e+01 5.952029999999999710e+00 3.436650000000000205e+00 1.012770000000000081e+01 1.410000000000000012e-03 6.872060000000000279e+00 1.013499999999999979e+01 1.984720000000000040e+00 3.437559999999999949e+00 1.013139999999999930e+01 -2.210000000000000159e-03 4.270000000000000358e-03 1.363119999999999976e+01 -1.977459999999999996e+00 3.439200000000000035e+00 1.363219999999999921e+01 3.970549999999999802e+00 6.119999999999999572e-03 1.363199999999999967e+01 1.985649999999999915e+00 3.439090000000000202e+00 1.362920000000000087e+01 3.968750000000000000e+00 6.874990000000000379e+00 1.713019999999999854e+01 5.953199999999999825e+00 3.437629999999999963e+00 1.712940000000000040e+01 3.971410000000000107e+00 1.820000000000000003e-03 1.712879999999999825e+01 1.985179999999999945e+00 3.436929999999999819e+00 1.713060000000000116e+01
1.984699999999999909e+00 1.145850000000000035e+00 1.158079999999999998e+01 2.000000000000000164e-05 4.583420000000000272e+00 1.158079999999999998e+01 5.954069999999999752e+00 1.145850000000000035e+00 1.158079999999999998e+01 3.969390000000000196e+00 4.583420000000000272e+00 1.158079999999999998e+01 -2.000000000000000164e-05 2.291729999999999823e+00 1.568120000000000047e+01 -1.984699999999999909e+00 5.729300000000000281e+00 1.568120000000000047e+01 3.969349999999999934e+00 2.291729999999999823e+00 1.568120000000000047e+01 1.984669999999999934e+00 5.729300000000000281e+00 1.568120000000000047e+01 0.000000000000000000e+00 0.000000000000000000e+00 1.013139999999999930e+01 5.954049999999999621e+00 3.437580000000000080e+00 1.013139999999999930e+01 3.969370000000000065e+00 0.000000000000000000e+00 1.013139999999999930e+01 1.984690000000000065e+00 3.437580000000000080e+00 1.013139999999999930e+01 0.000000000000000000e+00 0.000000000000000000e+00 1.363080000000000069e+01 5.954049999999999621e+00 3.437580000000000080e+00 1.363080000000000069e+01 3.969370000000000065e+00 0.000000000000000000e+00 1.363080000000000069e+01 1.984690000000000065e+00 3.437580000000000080e+00 1.363080000000000069e+01 0.000000000000000000e+00 0.000000000000000000e+00 1.713060000000000116e+01 5.954049999999999621e+00 3.437580000000000080e+00 1.713060000000000116e+01 3.969370000000000065e+00 0.000000000000000000e+00 1.713060000000000116e+01 1.984690000000000065e+00 3.437580000000000080e+00 1.713060000000000116e+01
1.980860000000000065e+00 1.142930000000000001e+00 1.157830000000000048e+01 -5.250000000000000326e-03 4.580980000000000274e+00 1.158649999999999913e+01 5.952890000000000015e+00 1.144079999999999986e+00 1.158140000000000036e+01 3.968220000000000081e+00 4.583140000000000214e+00 1.158060000000000045e+01 2.350000000000000092e-03 2.294719999999999871e+00 1.567820000000000036e+01 -1.989589999999999970e+00 5.727669999999999817e+00 1.568229999999999968e+01 3.973669999999999813e+00 2.292339999999999822e+00 1.568759999999999977e+01 1.986289999999999889e+00 5.727109999999999701e+00 1.568050000000000033e+01 7.937940000000000218e+00 1.270000000000000078e-03 1.013250000000000028e+01 -1.982869999999999910e+00 3.436729999999999841e+00 1.012930000000000064e+01 3.972220000000000084e+00 6.340000000000000149e-03 1.013640000000000008e+01 1.983549999999999924e+00 3.440409999999999968e+00 1.013240000000000052e+01 3.962800000000000100e+00 6.874340000000000117e+00 1.363739999999999952e+01 -1.979479999999999906e+00 3.432339999999999947e+00 1.363640000000000008e+01 3.968080000000000052e+00 3.699999999999999947e-04 1.362969999999999970e+01 1.989330000000000043e+00 3.436290000000000067e+00 1.362570000000000014e+01 0.000000000000000000e+00 0.000000000000000000e+00 1.713060000000000116e+01 5.951319999999999943e+00 3.438750000000000195e+00 1.713139999999999930e+01 -3.579999999999999849e-03 6.873969999999999914e+00 1.712910000000000110e+01 1.983540000000000081e+00 3.440580000000000194e+00 1.712719999999999843e+01
1.991249999999999964e+00 1.147059999999999969e+00 1.158810000000000073e+01 -5.400000000000000069e-04 4.576100000000000279e+00 1.158469999999999978e+01 5.958289999999999864e+00 1.141059999999999963e+00 1.158050000000000068e+01 3.961710000000000065e+00 4.584410000000000096e+00 1.157510000000000083e+01 4.190000000000000148e-03 2.295980000000000132e+00 1.568120000000000047e+01 -1.984779999999999989e+00 5.728830000000000311e+00 1.568099999999999916e+01 3.965800000000000214e+00 2.288520000000000110e+00 1.568410000000000082e+01 1.981959999999999944e+00 5.733880000000000088e+00 1.568350000000000044e+01 7.938130000000000130e+00 1.700000000000000122e-04 1.013250000000000028e+01 5.953350000000000364e+00 3.438790000000000013e+00 1.013219999999999921e+01 -4.729999999999999830e-03 6.871979999999999755e+00 1.012720000000000020e+01 1.986499999999999932e+00 3.437699999999999978e+00 1.013219999999999921e+01 -3.964370000000000172e+00 6.866979999999999862e+00 1.362909999999999933e+01 5.954379999999999562e+00 3.433380000000000098e+00 1.363659999999999961e+01 1.499999999999999869e-04 6.874909999999999854e+00 1.363109999999999999e+01 1.984890000000000043e+00 3.437089999999999979e+00 1.363039999999999985e+01 7.936849999999999739e+00 1.110000000000000092e-03 1.713050000000000139e+01 5.952860000000000262e+00 3.434499999999999886e+00 1.713899999999999935e+01 3.967620000000000147e+00 1.030000000000000100e-03 1.713380000000000081e+01 1.983980000000000077e+00 3.438369999999999926e+00 1.713179999999999836e+01
1.985789999999999944e+00 1.140409999999999924e+00 1.158319999999999972e+01 4.400000000000000265e-03 4.588129999999999598e+00 1.158489999999999931e+01 5.950590000000000046e+00 1.143699999999999939e+00 1.158660000000000068e+01 3.969930000000000181e+00 4.585079999999999600e+00 1.157970000000000077e+01 4.519999999999999712e-03 2.286319999999999908e+00 1.567719999999999914e+01 -1.984199999999999964e+00 5.730159999999999698e+00 1.568229999999999968e+01 3.974250000000000060e+00 2.298770000000000202e+00 1.568490000000000073e+01 1.983100000000000085e+00 5.727520000000000167e+00 1.567950000000000088e+01 9.000000000000000567e-05 1.510000000000000057e-03 1.012829999999999941e+01 5.953920000000000101e+00 3.436409999999999965e+00 1.012509999999999977e+01 4.800000000000000122e-04 6.872650000000000148e+00 1.012940000000000040e+01 1.986939999999999928e+00 3.435420000000000140e+00 1.013349999999999973e+01 7.936829999999999607e+00 1.389999999999999960e-03 1.362630000000000052e+01 5.947350000000000136e+00 3.439929999999999932e+00 1.362470000000000070e+01 -6.400000000000000524e-04 6.874380000000000379e+00 1.363049999999999962e+01 1.985190000000000010e+00 3.438410000000000188e+00 1.362979999999999947e+01 3.965559999999999974e+00 6.871990000000000265e+00 1.713319999999999865e+01 -1.980350000000000055e+00 3.434419999999999806e+00 1.712640000000000029e+01 3.968440000000000190e+00 7.600000000000000418e-04 1.713070000000000093e+01 1.984390000000000098e+00 3.435950000000000060e+00 1.712890000000000157e+01
1.983899999999999997e+00 1.148949999999999916e+00 1.158360000000000056e+01 -2.079999999999999818e-03 4.583149999999999835e+00 1.158159999999999989e+01 5.955429999999999779e+00 1.147370000000000001e+00 1.158159999999999989e+01 3.968939999999999912e+00 4.583990000000000009e+00 1.158070000000000022e+01 -1.399999999999999986e-03 2.293870000000000076e+00 1.568319999999999936e+01 -1.980809999999999960e+00 5.724520000000000053e+00 1.568260000000000076e+01 3.965780000000000083e+00 2.283840000000000092e+00 1.567740000000000045e+01 1.984720000000000040e+00 5.729709999999999859e+00 1.568079999999999963e+01 -3.967159999999999798e+00 6.871970000000000134e+00 1.013349999999999973e+01 -1.984639999999999960e+00 3.437910000000000021e+00 1.012959999999999994e+01 -8.199999999999999824e-04 6.868339999999999890e+00 1.013780000000000037e+01 1.984699999999999909e+00 3.437549999999999883e+00 1.013139999999999930e+01 1.100000000000000066e-03 2.599999999999999772e-04 1.363230000000000075e+01 -1.982480000000000020e+00 3.435140000000000082e+00 1.363049999999999962e+01 3.968010000000000037e+00 6.400000000000000524e-04 1.362880000000000003e+01 1.990280000000000049e+00 3.444380000000000219e+00 1.363339999999999996e+01 4.190000000000000148e-03 6.409999999999999899e-03 1.712999999999999901e+01 5.948000000000000398e+00 3.433359999999999967e+00 1.712610000000000099e+01 3.969580000000000108e+00 6.099999999999999737e-04 1.712979999999999947e+01 1.978939999999999921e+00 3.441409999999999858e+00 1.713340000000000174e+01
1.984869999999999912e+00 1.152349999999999985e+00 1.158779999999999966e+01 3.360000000000000139e-03 4.578350000000000364e+00 1.157760000000000034e+01 5.952600000000000335e+00 1.148300000000000098e+00 1.157980000000000054e+01 3.969419999999999948e+00 4.582370000000000054e+00 1.158060000000000045e+01 -3.320000000000000034e-03 2.295920000000000183e+00 1.568140000000000001e+01 -1.984250000000000069e+00 5.731749999999999901e+00 1.567580000000000062e+01 3.969689999999999941e+00 2.294470000000000010e+00 1.568629999999999924e+01 1.979600000000000026e+00 5.734320000000000306e+00 1.567629999999999946e+01 3.970200000000000173e+00 6.872370000000000090e+00 1.012959999999999994e+01 5.954449999999999577e+00 3.435350000000000126e+00 1.012889999999999979e+01 3.972999999999999865e+00 3.490000000000000047e-03 1.013160000000000061e+01 1.979519999999999946e+00 3.433879999999999821e+00 1.013160000000000061e+01 -3.965809999999999835e+00 6.871520000000000294e+00 1.363139999999999930e+01 -1.984560000000000102e+00 3.438109999999999999e+00 1.363160000000000061e+01 3.971459999999999990e+00 9.100000000000000016e-04 1.362829999999999941e+01 1.987079999999999957e+00 3.436710000000000154e+00 1.362920000000000087e+01 7.933799999999999741e+00 8.300000000000000086e-04 1.713489999999999824e+01 -1.976159999999999917e+00 3.434200000000000141e+00 1.713060000000000116e+01 -6.590000000000000371e-03 6.871839999999999726e+00 1.712989999999999924e+01 1.981239999999999890e+00 3.441199999999999815e+00 1.712940000000000040e+01
1.745260000000000034e+00 3.164200000000000124e+00 7.335609999999999964e+00 3.486369999999999969e+00 5.941950000000000287e+00 9.586650000000000560e+00 5.824830000000000396e+00 4.361449999999999605e+00 7.668300000000000338e+00 5.365870000000000140e+00 1.105580000000000007e+00 7.349689999999999834e+00 5.475629999999999775e+00 4.467780000000000307e+00 1.949530000000000030e+01 6.205449999999999910e+00 1.815039999999999987e+00 1.678300000000000125e+01 8.350089999999999790e+00 6.345930000000000071e+00 4.734999999999999765e-01 1.762529999999999930e+00 2.485259999999999803e+00 1.998720000000000141e+01 8.040570000000000661e+00 5.116629999999999789e+00 6.146779999999999688e+00 4.237560000000000215e+00 3.131349999999999856e+00 6.066869999999999763e+00 1.573450000000000015e+00 3.822599999999999998e+00 9.659079999999999444e+00 4.179499999999999882e-01 1.078400000000000025e+00 6.939020000000000188e+00 3.430530000000000079e+00 3.416399999999999992e-01 9.659530000000000172e+00 5.849840000000000373e+00 2.653230000000000199e+00 9.541650000000000631e+00 8.443030000000000257e+00 5.683119999999999727e+00 1.781210000000000093e+01 3.887910000000000199e+00 3.452890000000000015e+00 1.788119999999999976e+01 8.203269999999999840e+00 3.367700000000000138e+00 1.725479999999999947e+01 2.363820000000000032e+00 4.539349999999999774e+00 1.257309999999999928e+00 6.970439999999999969e+00 2.601440000000000197e+00 6.401799999999999713e-01 5.639800000000000146e+00 6.225839999999999819e+00 1.274860000000000104e+00
1.982180000000000053e+00 1.153170000000000028e+00 1.158530000000000015e+01 4.400000000000000157e-04 4.581809999999999938e+00 1.157879999999999932e+01 5.964019999999999655e+00 1.145659999999999901e+00 1.157980000000000054e+01 3.974559999999999871e+00 4.586129999999999818e+00 1.158189999999999920e+01 3.789999999999999966e-03 2.286399999999999988e+00 1.568430000000000035e+01 -1.986350000000000060e+00 5.731029999999999625e+00 1.568079999999999963e+01 3.974219999999999864e+00 2.296749999999999847e+00 1.567800000000000082e+01 1.981970000000000010e+00 5.733310000000000350e+00 1.567549999999999955e+01 7.934650000000000425e+00 2.000000000000000096e-04 1.013819999999999943e+01 5.951699999999999768e+00 3.437260000000000204e+00 1.012899999999999956e+01 3.963709999999999845e+00 3.660000000000000059e-03 1.013729999999999976e+01 1.986059999999999937e+00 3.441860000000000142e+00 1.013380000000000081e+01 -5.400000000000000069e-04 3.459999999999999968e-03 1.363359999999999950e+01 -1.981279999999999930e+00 3.436179999999999790e+00 1.363599999999999923e+01 3.969899999999999984e+00 7.600000000000000418e-04 1.363180000000000014e+01 1.984250000000000069e+00 3.436459999999999848e+00 1.363219999999999921e+01 7.934059999999999668e+00 1.000000000000000021e-03 1.713370000000000104e+01 -1.983659999999999979e+00 3.439010000000000122e+00 1.712910000000000110e+01 2.160000000000000028e-03 6.874220000000000219e+00 1.712760000000000105e+01 1.985679999999999890e+00 3.437990000000000101e+00 1.712199999999999989e+01
1.989039999999999919e+00 1.143569999999999975e+00 1.158239999999999981e+01 -2.779999999999999919e-03 4.583730000000000082e+00 1.158329999999999949e+01 5.954819999999999780e+00 1.145080000000000098e+00 1.158130000000000059e+01 3.966089999999999893e+00 4.592369999999999841e+00 1.158019999999999960e+01 -3.160000000000000048e-03 2.285149999999999793e+00 1.567759999999999998e+01 -1.986669999999999936e+00 5.731600000000000250e+00 1.568319999999999936e+01 3.970200000000000173e+00 2.293530000000000069e+00 1.568410000000000082e+01 1.983600000000000030e+00 5.728410000000000224e+00 1.568130000000000024e+01 3.499999999999999964e-04 8.800000000000000313e-04 1.013269999999999982e+01 5.949430000000000440e+00 3.436160000000000103e+00 1.013289999999999935e+01 3.970470000000000166e+00 4.800000000000000122e-04 1.013090000000000046e+01 1.983770000000000033e+00 3.440549999999999997e+00 1.013620000000000054e+01 3.967989999999999906e+00 6.873949999999999783e+00 1.363199999999999967e+01 5.949250000000000149e+00 3.437310000000000088e+00 1.363509999999999955e+01 9.600000000000000243e-04 6.873039999999999594e+00 1.363250000000000028e+01 1.984779999999999989e+00 3.437689999999999912e+00 1.363069999999999915e+01 3.968090000000000117e+00 6.871780000000000221e+00 1.713410000000000011e+01 5.948879999999999946e+00 3.433949999999999836e+00 1.712509999999999977e+01 -2.809999999999999998e-03 6.874660000000000437e+00 1.713329999999999842e+01 1.984709999999999974e+00 3.442680000000000184e+00 1.713380000000000081e+01
1.979940000000000033e+00 1.147270000000000012e+00 1.158419999999999916e+01 3.299999999999999982e-03 4.584130000000000038e+00 1.157980000000000054e+01 5.950789999999999580e+00 1.146479999999999944e+00 1.157390000000000008e+01 3.967550000000000132e+00 4.581349999999999589e+00 1.158039999999999914e+01 4.199999999999999740e-03 2.296479999999999855e+00 1.567999999999999972e+01 -1.980879999999999974e+00 5.730229999999999713e+00 1.567849999999999966e+01 3.969409999999999883e+00 2.291809999999999903e+00 1.568120000000000047e+01 1.990839999999999943e+00 5.727660000000000196e+00 1.567570000000000086e+01 3.966979999999999951e+00 6.866480000000000139e+00 1.012850000000000072e+01 -1.986080000000000068e+00 3.440240000000000187e+00 1.013199999999999967e+01 1.039999999999999909e-03 6.873619999999999841e+00 1.012989999999999924e+01 1.986250000000000071e+00 3.439579999999999860e+00 1.013330000000000020e+01 3.967839999999999812e+00 6.873730000000000118e+00 1.362950000000000017e+01 -1.977980000000000071e+00 3.442320000000000046e+00 1.362880000000000003e+01 3.964949999999999974e+00 1.510000000000000057e-03 1.362529999999999930e+01 1.984110000000000040e+00 3.437349999999999905e+00 1.363010000000000055e+01 3.962169999999999970e+00 6.870870000000000033e+00 1.713080000000000069e+01 -1.985289999999999999e+00 3.439389999999999947e+00 1.712920000000000087e+01 3.966260000000000119e+00 3.830000000000000071e-03 1.713200000000000145e+01 1.978949999999999987e+00 3.441609999999999836e+00 1.713479999999999848e+01
1.984320000000000084e+00 1.146249999999999991e+00 1.158220000000000027e+01 -2.789999999999999945e-03 4.585829999999999629e+00 1.158169999999999966e+01 5.957889999999999908e+00 1.152670000000000083e+00 1.157840000000000025e+01 3.965300000000000047e+00 4.588720000000000354e+00 1.158580000000000076e+01 3.600000000000000227e-04 2.292060000000000208e+00 1.568169999999999931e+01 -1.987389999999999990e+00 5.727590000000000181e+00 1.568369999999999997e+01 3.977829999999999977e+00 2.290719999999999867e+00 1.568580000000000041e+01 1.982290000000000108e+00 5.729729999999999990e+00 1.568249999999999922e+01 -3.966909999999999936e+00 6.871069999999999567e+00 1.012930000000000064e+01 -1.976129999999999942e+00 3.441870000000000207e+00 1.012989999999999924e+01 3.969090000000000007e+00 2.560000000000000209e-03 1.012679999999999936e+01 1.985700000000000021e+00 3.437980000000000036e+00 1.013119999999999976e+01 -3.964280000000000026e+00 6.871920000000000250e+00 1.363490000000000002e+01 5.953210000000000335e+00 3.433479999999999865e+00 1.363439999999999941e+01 3.967140000000000111e+00 3.469999999999999994e-03 1.363230000000000075e+01 1.979840000000000044e+00 3.434330000000000105e+00 1.362969999999999970e+01 -3.963870000000000005e+00 6.871030000000000193e+00 1.712989999999999924e+01 5.954089999999999883e+00 3.434509999999999952e+00 1.712920000000000087e+01 -4.479999999999999608e-03 6.873199999999999754e+00 1.712770000000000081e+01 1.977610000000000090e+00 3.442689999999999806e+00 1.713279999999999959e+01
1.984839999999999938e+00 1.142740000000000089e+00 1.157760000000000034e+01 -5.009999999999999697e-03 4.586590000000000167e+00 1.158070000000000022e+01 5.957869999999999777e+00 1.144060000000000077e+00 1.158830000000000027e+01 3.962359999999999882e+00 4.581760000000000055e+00 1.158580000000000076e+01 -2.150000000000000001e-03 2.287729999999999819e+00 1.567839999999999989e+01 -1.982830000000000092e+00 5.728860000000000063e+00 1.567939999999999934e+01 3.968570000000000153e+00 2.291790000000000216e+00 1.568369999999999997e+01 1.980709999999999971e+00 5.734490000000000087e+00 1.567910000000000004e+01 3.968900000000000095e+00 6.873079999999999856e+00 1.012800000000000011e+01 -1.981759999999999966e+00 3.443919999999999870e+00 1.012969999999999970e+01 3.970530000000000115e+00 1.879999999999999944e-03 1.012860000000000049e+01 1.985419999999999963e+00 3.429949999999999832e+00 1.013339999999999996e+01 2.259999999999999856e-03 9.700000000000000505e-04 1.363310000000000066e+01 5.948889999999999567e+00 3.436059999999999892e+00 1.363659999999999961e+01 -8.000000000000000654e-05 6.871540000000000425e+00 1.363240000000000052e+01 1.984709999999999974e+00 3.437660000000000160e+00 1.363090000000000046e+01 1.490000000000000005e-03 1.539999999999999919e-03 1.713410000000000011e+01 5.949519999999999698e+00 3.439220000000000166e+00 1.712620000000000076e+01 3.972669999999999924e+00 3.020000000000000115e-03 1.713109999999999999e+01 1.991209999999999924e+00 3.440310000000000201e+00 1.712989999999999924e+01
3.991439999999999877e+00 8.286700000000000177e-01 1.153129999999999988e+01 2.657300000000000217e-01 3.152340000000000142e+00 1.100820000000000043e+01 2.364219999999999988e+00 6.428069999999999951e+00 1.061880000000000024e+01 3.671139999999999848e+00 5.032250000000000334e+00 1.273240000000000016e+01 -2.661399999999999877e-01 3.785860000000000003e+00 1.595190000000000019e+01 -2.806950000000000056e+00 6.747099999999999653e+00 1.556119999999999948e+01 3.733950000000000102e+00 3.391270000000000007e+00 1.593210000000000015e+01 1.559460000000000068e+00 7.200980000000000381e+00 1.550629999999999953e+01 4.265430000000000277e+00 5.269730000000000025e+00 1.017409999999999926e+01 6.242840000000000167e+00 1.570349999999999913e+00 1.021940000000000026e+01 -1.537999999999999923e-01 5.607669999999999710e+00 1.044819999999999993e+01 2.180190000000000072e+00 2.122660000000000213e+00 9.854710000000000747e+00 5.590740000000000265e+00 3.828040000000000109e+00 1.371809999999999974e+01 -5.097300000000000164e-01 7.035770000000000302e+00 1.393079999999999963e+01 1.622279999999999944e+00 2.003130000000000077e+00 1.702479999999999905e+01 1.419669999999999987e+00 3.979610000000000092e+00 1.342570000000000086e+01 7.667500000000000426e+00 1.520700000000000107e-01 1.365959999999999930e+01 5.830809999999999604e+00 2.188349999999999795e+00 1.698339999999999961e+01 -8.244500000000000162e-01 5.755219999999999558e+00 1.725179999999999936e+01 3.244299999999999962e+00 5.872150000000000425e+00 1.719160000000000110e+01
1.981780000000000097e+00 1.147960000000000091e+00 1.158750000000000036e+01 5.299999999999999807e-04 4.577259999999999884e+00 1.157680000000000042e+01 5.958639999999999937e+00 1.144120000000000026e+00 1.158619999999999983e+01 3.962930000000000064e+00 4.587200000000000166e+00 1.158569999999999922e+01 -5.590000000000000351e-03 2.297919999999999963e+00 1.568120000000000047e+01 -1.988390000000000102e+00 5.734219999999999651e+00 1.567660000000000053e+01 3.969440000000000079e+00 2.293340000000000156e+00 1.568459999999999965e+01 1.984290000000000109e+00 5.729309999999999903e+00 1.567719999999999914e+01 3.968150000000000066e+00 6.873840000000000394e+00 1.012880000000000003e+01 5.951290000000000191e+00 3.441310000000000091e+00 1.013069999999999915e+01 3.970299999999999940e+00 7.500000000000000156e-04 1.013260000000000005e+01 1.983710000000000084e+00 3.436920000000000197e+00 1.013100000000000023e+01 3.680000000000000111e-03 4.080000000000000293e-03 1.362969999999999970e+01 5.947510000000000296e+00 3.439360000000000195e+00 1.363710000000000022e+01 3.969120000000000203e+00 1.319999999999999993e-03 1.363020000000000032e+01 1.979780000000000095e+00 3.433949999999999836e+00 1.362979999999999947e+01 4.859999999999999737e-03 1.479999999999999979e-03 1.713510000000000133e+01 -1.982709999999999972e+00 3.439200000000000035e+00 1.713220000000000098e+01 3.973030000000000062e+00 5.810000000000000060e-03 1.713489999999999824e+01 1.985020000000000007e+00 3.437959999999999905e+00 1.713119999999999976e+01
1.982890000000000041e+00 1.148679999999999923e+00 1.157469999999999999e+01 -1.309999999999999967e-03 4.591450000000000031e+00 1.157929999999999993e+01 5.953459999999999752e+00 1.143410000000000037e+00 1.157789999999999964e+01 3.970509999999999984e+00 4.584340000000000082e+00 1.158179999999999943e+01 8.400000000000000348e-04 2.290490000000000137e+00 1.568520000000000003e+01 -1.993989999999999929e+00 5.730579999999999785e+00 1.568169999999999931e+01 3.976710000000000189e+00 2.295780000000000154e+00 1.567910000000000004e+01 1.982699999999999907e+00 5.735420000000000407e+00 1.567559999999999931e+01 7.933430000000000426e+00 2.079999999999999818e-03 1.013419999999999987e+01 -1.982410000000000005e+00 3.439449999999999896e+00 1.013199999999999967e+01 -7.139999999999999646e-03 6.868689999999999962e+00 1.013390000000000057e+01 1.990869999999999918e+00 3.444819999999999993e+00 1.012870000000000026e+01 6.700000000000000226e-04 5.900000000000000296e-04 1.362969999999999970e+01 5.947479999999999656e+00 3.443849999999999856e+00 1.363030000000000008e+01 3.965320000000000178e+00 6.999999999999999929e-04 1.362500000000000000e+01 1.989640000000000075e+00 3.431109999999999882e+00 1.363320000000000043e+01 7.938460000000000072e+00 2.700000000000000035e-04 1.713080000000000069e+01 5.952650000000000219e+00 3.439000000000000057e+00 1.713299999999999912e+01 -6.020000000000000177e-03 6.869110000000000049e+00 1.713479999999999848e+01 1.985130000000000061e+00 3.437969999999999970e+00 1.713009999999999877e+01
8.246290000000000120e+00 3.849709999999999965e+00 1.124830000000000041e+01 6.889249999999999652e+00 1.275770000000000071e+00 8.679769999999999541e+00 4.335149999999999615e+00 1.453489999999999949e+00 1.114460000000000051e+01 5.462850000000000428e+00 4.857569999999999943e+00 8.726820000000000022e+00 4.084050000000000402e+00 9.480100000000000193e-01 1.857130000000000081e+01 5.884260000000000268e+00 5.043100000000000360e-01 1.627189999999999870e+01 8.202439999999999287e+00 3.434740000000000126e+00 1.774970000000000070e+01 5.258779999999999788e+00 5.317569999999999908e+00 1.642530000000000001e+01 4.216759999999999842e+00 2.143110000000000070e+00 8.661270000000000024e+00 1.373240000000000016e+00 1.227700000000000041e-01 7.392509999999999692e+00 7.057240000000000180e+00 1.136689999999999978e+00 1.130519999999999925e+01 8.133399999999999963e+00 3.488859999999999850e+00 8.450760000000000716e+00 3.013700000000000045e+00 2.495589999999999975e+00 1.274239999999999995e+01 6.088949999999999640e+00 5.447669999999999568e+00 1.125380000000000003e+01 6.754730000000000345e+00 3.059979999999999922e+00 1.566360000000000063e+01 3.419550000000000090e+00 1.087579999999999991e+00 1.503609999999999935e+01 2.724019999999999886e+00 4.739889999999999937e+00 1.589920000000000044e+01 2.355999999999999872e+00 2.421199999999999797e+00 1.958480000000000132e+01 6.462749999999999773e+00 7.470299999999999718e-01 1.894330000000000069e+01 5.975369999999999848e+00 4.725469999999999615e+00 1.899909999999999854e+01