1.663270000000000026e+00 1.012270000000000003e+00 1.559139999999999970e+00 9.872600000000000264e-01 4.743050000000000210e+00 2.775119999999999809e+00 5.989659999999999762e+00 1.440180000000000016e+00 1.615739999999999954e+00 3.913120000000000154e+00 4.325470000000000148e+00 1.837080000000000046e+00 2.293999999999999928e-01 2.191380000000000106e+00 8.849309999999999121e+00 -1.844899999999999984e+00 6.256660000000000110e+00 7.910859999999999559e+00 4.843210000000000015e+00 1.977530000000000010e+00 9.966639999999999944e+00 2.837050000000000072e+00 5.833140000000000214e+00 9.215590000000000614e+00 4.742000000000000104e-01 1.593999999999999861e-01 1.059049000000000085e+01 -1.353050000000000086e+00 3.522759999999999891e+00 1.086050000000000004e+01 -9.267000000000000237e-02 6.996220000000000105e+00 1.342099999999999960e-01 1.756939999999999946e+00 3.839949999999999974e+00 3.206999999999999851e-01 2.546199999999999797e+00 1.780580000000000052e+00 7.572530000000000427e+00 4.172500000000000098e-01 4.836369999999999614e+00 7.979779999999999873e+00 6.300360000000000404e+00 9.774199999999999555e-01 7.689799999999999969e+00 4.444029999999999703e+00 4.602310000000000123e+00 7.615590000000000082e+00 3.923400000000000221e-01 2.050330000000000208e+00 3.298789999999999889e+00 -1.885150000000000103e+00 5.549310000000000187e+00 2.390960000000000196e+00 4.214769999999999683e+00 2.119699999999999918e+00 3.348949999999999871e+00 2.907880000000000020e+00 6.533079999999999998e+00 3.454309999999999992e+00
2.374880000000000102e+00 8.941999999999999948e-02 2.197060000000000013e+00 -6.471400000000000485e-01 3.939690000000000136e+00 9.464200000000000390e-01 6.972579999999999778e+00 1.266680000000000028e+00 3.744450000000000056e+00 2.197789999999999910e+00 6.200109999999999566e+00 1.580699999999999994e+00 2.820539999999999825e+00 2.255069999999999908e+00 7.676429999999999865e+00 1.226499999999999951e-01 5.176650000000000418e+00 4.887780000000000236e+00 5.756770000000000387e+00 3.920490000000000030e+00 8.320909999999999584e+00 2.853639999999999954e+00 7.087970000000000326e+00 8.874589999999999534e+00 7.764980000000000437e+00 7.367700000000000360e-01 9.214099999999999513e-01 5.931289999999999729e+00 3.194900000000000073e+00 1.069793999999999912e+01 -1.709600000000000009e-01 6.720349999999999824e+00 5.496999999999999803e-02 1.803120000000000056e+00 3.763149999999999995e+00 1.014250000000000096e+00 1.132870000000000044e+00 2.164079999999999782e+00 9.448410000000000863e+00 -3.289799999999999947e-01 5.063019999999999854e+00 7.498829999999999885e+00 5.232230000000000381e+00 1.397440000000000015e+00 7.015570000000000306e+00 3.335859999999999825e+00 4.891490000000000116e+00 7.613319999999999865e+00 5.856099999999999639e-01 2.552849999999999842e+00 4.843750000000000000e+00 -1.909790000000000099e+00 5.086059999999999803e+00 3.121849999999999792e+00 3.922590000000000021e+00 1.477300000000000058e+00 4.191980000000000040e+00 2.715539999999999843e+00 6.102380000000000138e+00 4.384229999999999627e+00
3.611950000000000216e+00 1.803870000000000084e+00 1.970569999999999933e+00 3.073519999999999808e+00 4.548079999999999679e+00 1.095341999999999949e+01 6.080449999999999910e+00 2.335300000000000153e+00 5.440210000000000434e+00 3.924770000000000092e+00 6.922480000000000189e+00 2.052919999999999856e+00 -1.298000000000000043e+00 6.251920000000000144e+00 1.006939999999999991e+01 -3.233099999999999863e-01 6.773179999999999978e+00 6.130530000000000257e+00 -2.641100000000000114e-01 4.126319999999999766e+00 3.449600000000000222e+00 -2.206100000000000005e-01 3.703030000000000044e+00 7.950330000000000119e+00 -4.316099999999999937e-01 1.562990000000000101e+00 3.832829999999999959e+00 3.639899999999999802e-01 4.136560000000000237e+00 1.050482000000000049e+01 3.084859999999999935e+00 6.954780000000000406e+00 1.106911999999999985e+01 4.788280000000000314e+00 2.207110000000000127e+00 1.066381999999999941e+01 -1.832680000000000087e+00 6.890939999999999621e+00 1.339259999999999895e+00 -2.162370000000000125e+00 5.755550000000000388e+00 7.680439999999999934e+00 4.217939999999999579e+00 8.294399999999999551e-01 8.858810000000000073e+00 1.272829999999999906e+00 4.690669999999999895e+00 5.971619999999999706e+00 7.148930000000000007e+00 1.493829999999999991e+00 7.626039999999999708e+00 6.130550000000000388e+00 4.629290000000000127e+00 4.197309999999999874e+00 3.305169999999999941e+00 1.357220000000000093e+00 4.777079999999999771e+00 2.708070000000000199e+00 4.296059999999999768e+00 2.454979999999999940e+00
-1.724099999999999966e+00 6.837699999999999889e+00 4.709789999999999921e+00 4.952300000000000035e-01 5.496590000000000309e+00 1.488180000000000058e+00 2.359640000000000182e+00 7.415180000000000327e+00 4.197809999999999597e+00 4.980109999999999815e+00 5.483850000000000335e+00 9.352399999999999602e-01 -1.306799999999999906e-01 3.535489999999999799e+00 8.397640000000000882e+00 1.996080000000000076e+00 -2.278000000000000164e-02 8.288930000000000575e+00 4.008359999999999701e+00 3.565939999999999888e+00 8.424810000000000798e+00 2.065129999999999910e+00 7.158430000000000071e+00 9.020910000000000650e+00 5.233900000000000219e-01 2.074999999999999900e-01 1.061490000000000045e+01 2.623400000000000176e-01 2.547530000000000072e+00 1.080400000000000027e+01 4.067300000000000360e+00 2.377100000000000046e-01 3.085100000000000064e-01 4.346499999999999808e+00 3.230789999999999829e+00 1.087400000000000055e+01 1.946569999999999911e+00 2.506359999999999921e+00 7.195560000000000400e+00 5.596000000000000280e-02 5.883499999999999730e+00 7.784329999999999750e+00 6.203140000000000320e+00 2.346779999999999866e+00 7.387480000000000047e+00 3.429190000000000182e+00 6.312990000000000101e+00 6.683189999999999742e+00 2.996500000000000274e-01 2.339600000000000013e-01 2.836289999999999978e+00 -1.799290000000000056e+00 4.909790000000000099e+00 2.795570000000000110e+00 4.216269999999999740e+00 9.668900000000000272e-01 4.512139999999999596e+00 2.318900000000000183e+00 5.111119999999999663e+00 3.058079999999999909e+00
2.206350000000000033e+00 3.701699999999999990e-01 3.022790000000000088e+00 5.680699999999999639e-01 4.822339999999999627e+00 4.484400000000000053e-01 2.741670000000000051e+00 7.149049999999999905e+00 4.371269999999999989e+00 4.454539999999999722e+00 4.866749999999999687e+00 1.555500000000000105e+00 -1.644799999999999873e-01 3.397749999999999826e+00 8.116849999999999454e+00 -2.246010000000000062e+00 7.014999999999999680e+00 8.544999999999999929e+00 3.732660000000000089e+00 3.772289999999999921e+00 8.412639999999999674e+00 1.910449999999999982e+00 6.960219999999999629e+00 8.545479999999999521e+00 4.406340000000000146e+00 6.837970000000000326e+00 1.060778999999999961e+01 -6.412099999999999467e-01 2.647330000000000183e+00 1.046588999999999992e+01 5.005650000000000155e+00 1.252099999999999880e-01 3.712799999999999989e-01 2.881369999999999987e+00 3.211460000000000203e+00 8.210000000000000631e-02 2.373139999999999805e+00 1.951440000000000063e+00 7.421000000000000263e+00 5.307199999999999696e-01 5.621830000000000105e+00 6.721560000000000201e+00 6.144449999999999967e+00 2.127139999999999809e+00 7.121220000000000105e+00 3.984570000000000167e+00 5.967979999999999841e+00 6.948210000000000441e+00 3.316999999999999948e-01 2.117949999999999999e+00 4.053180000000000227e+00 -1.853550000000000031e+00 4.902899999999999814e+00 3.085539999999999949e+00 4.082209999999999894e+00 1.177980000000000027e+00 4.436630000000000074e+00 2.602170000000000094e+00 4.876800000000000246e+00 3.335570000000000146e+00
3.672210000000000196e+00 1.862309999999999910e+00 1.965959999999999930e+00 3.175510000000000055e+00 4.519009999999999749e+00 1.116962999999999973e+01 6.132579999999999920e+00 2.337530000000000108e+00 5.455549999999999677e+00 4.115169999999999995e+00 7.211960000000000370e+00 2.048389999999999933e+00 -1.256729999999999903e+00 6.455860000000000376e+00 1.028711999999999982e+01 -4.605400000000000049e-01 7.059660000000000046e+00 6.275070000000000370e+00 3.129999999999999970e-03 3.957660000000000178e+00 3.767990000000000173e+00 -4.939700000000000202e-01 3.773089999999999833e+00 8.010099999999999554e+00 -4.912199999999999900e-01 1.362279999999999935e+00 3.964309999999999778e+00 5.486400000000000166e-01 4.419740000000000002e+00 1.053482999999999947e+01 3.200480000000000214e+00 7.294760000000000133e+00 1.133262999999999998e+01 4.572600000000000442e+00 2.330979999999999830e+00 1.090923000000000087e+01 -1.965359999999999996e+00 6.993089999999999584e+00 1.187939999999999996e+00 -2.280349999999999877e+00 5.834929999999999950e+00 8.031990000000000407e+00 4.296439999999999593e+00 5.247199999999999642e-01 9.098250000000000171e+00 1.248010000000000064e+00 4.959609999999999630e+00 5.916660000000000252e+00 7.359510000000000218e+00 1.466080000000000050e+00 7.875890000000000057e+00 6.048379999999999868e+00 4.810529999999999973e+00 4.133420000000000094e+00 3.699559999999999960e+00 1.315129999999999910e+00 4.972030000000000172e+00 2.864970000000000017e+00 4.317969999999999864e+00 2.450810000000000155e+00
2.540070000000000050e+00 9.057399999999999896e-01 1.949289999999999967e+00 4.925700000000000078e-01 4.606040000000000134e+00 2.008350000000000080e+00 6.413350000000000328e+00 1.065879999999999939e+00 2.397130000000000205e+00 4.731969999999999565e+00 4.518159999999999954e+00 2.044309999999999850e+00 -1.103800000000000059e-01 2.477739999999999831e+00 7.047130000000000116e+00 -2.214749999999999996e+00 6.446170000000000400e+00 8.121990000000000265e+00 4.392549999999999955e+00 3.162749999999999950e+00 9.043290000000000717e+00 2.721649999999999903e+00 6.990700000000000358e+00 9.351449999999999818e+00 -3.036519999999999886e+00 6.955479999999999663e+00 1.028331000000000017e+01 -1.663960000000000106e+00 3.121239999999999792e+00 6.502999999999999892e-01 2.005300000000000138e-01 6.496080000000000076e+00 1.056531000000000020e+01 2.082479999999999887e+00 2.819900000000000073e+00 3.158500000000000196e-01 2.472049999999999859e+00 1.555979999999999919e+00 7.260629999999999917e+00 -1.415700000000000014e-01 5.066609999999999836e+00 7.275450000000000195e+00 5.715309999999999668e+00 1.393990000000000062e+00 7.660339999999999705e+00 3.536589999999999900e+00 5.257310000000000372e+00 7.369729999999999670e+00 4.369299999999999851e-01 2.324120000000000186e+00 3.399290000000000145e+00 -1.834929999999999950e+00 6.170720000000000205e+00 3.642520000000000202e+00 4.386669999999999625e+00 2.189960000000000129e+00 3.473650000000000126e+00 2.501320000000000210e+00 5.856740000000000279e+00 3.045199999999999907e+00
2.559600000000000097e+00 1.221759999999999957e+00 2.111769999999999925e+00 -1.205270000000000064e+00 4.895150000000000112e+00 8.465200000000000502e-01 6.154930000000000234e+00 1.302799999999999958e+00 3.889699999999999935e+00 2.284260000000000179e+00 5.505209999999999937e+00 2.011820000000000164e+00 2.466619999999999813e+00 2.013830000000000009e+00 6.777980000000000338e+00 -2.584600000000000231e-01 4.765500000000000291e+00 5.299290000000000056e+00 5.843230000000000146e+00 3.573580000000000201e+00 8.064349999999999241e+00 3.371249999999999858e+00 7.045270000000000366e+00 8.859469999999999956e+00 7.750779999999999781e+00 2.082299999999999984e-01 1.491440000000000099e+00 5.138539999999999885e+00 4.485759999999999970e+00 1.036646999999999963e+01 2.853700000000000125e-01 6.954690000000000261e+00 4.660000000000000253e-01 1.480790000000000051e+00 3.358620000000000161e+00 9.385200000000000209e-01 -1.712280000000000024e+00 7.133119999999999905e+00 7.953000000000000291e+00 -1.355999999999999983e-01 5.042620000000000324e+00 7.814610000000000056e+00 5.474680000000000213e+00 1.064880000000000049e+00 7.345769999999999911e+00 3.674450000000000216e+00 4.114620000000000388e+00 6.822440000000000282e+00 4.819300000000000250e-01 2.334509999999999863e+00 4.663759999999999906e+00 -1.699270000000000058e+00 5.541000000000000369e+00 3.466590000000000060e+00 3.944090000000000096e+00 2.443859999999999921e+00 3.816889999999999894e+00 2.289120000000000044e+00 5.959539999999999615e+00 4.601759999999999629e+00
1.403850000000000042e+00 1.091860000000000053e+00 1.300419999999999909e+00 -9.296000000000000096e-02 5.007209999999999717e+00 2.230840000000000156e+00 5.606099999999999639e+00 1.094619999999999926e+00 1.957400000000000029e+00 3.839989999999999792e+00 4.382299999999999862e+00 3.032389999999999919e+00 6.312100000000000488e-01 2.879490000000000105e+00 8.889029999999999987e+00 -1.197389999999999954e+00 5.811539999999999928e+00 7.929630000000000400e+00 4.697549999999999670e+00 1.873799999999999910e+00 8.659679999999999822e+00 3.267180000000000195e+00 5.994439999999999991e+00 8.400829999999999131e+00 4.225609999999999644e+00 6.317590000000000039e+00 1.176699999999999968e-01 6.002259999999999707e+00 3.741499999999999826e+00 1.061477000000000004e+01 8.352699999999999569e-01 6.482649999999999579e+00 1.065141000000000027e+01 2.678780000000000161e+00 2.982219999999999871e+00 1.063457000000000008e+01 2.544119999999999937e+00 1.196900000000000075e+00 7.370359999999999800e+00 1.108219999999999983e+00 4.706150000000000055e+00 7.021359999999999602e+00 6.901779999999999582e+00 1.337210000000000010e+00 7.224520000000000053e+00 4.906039999999999957e+00 4.634290000000000020e+00 7.097030000000000172e+00 -1.038899999999999962e-01 2.111380000000000035e+00 3.208190000000000097e+00 -2.133620000000000072e+00 5.969030000000000058e+00 3.562969999999999970e+00 3.413640000000000008e+00 1.886989999999999945e+00 3.553700000000000081e+00 1.800100000000000033e+00 5.988059999999999938e+00 3.779850000000000154e+00
2.549399999999999888e+00 1.143369999999999997e+00 2.105840000000000156e+00 -1.077839999999999909e+00 4.831229999999999691e+00 8.094200000000000284e-01 6.247320000000000206e+00 1.262569999999999970e+00 3.894849999999999923e+00 2.240779999999999994e+00 5.547139999999999738e+00 1.980480000000000018e+00 2.434200000000000141e+00 1.975100000000000078e+00 6.739410000000000345e+00 -1.945699999999999930e-01 4.805790000000000006e+00 5.248549999999999827e+00 5.908369999999999678e+00 3.633410000000000029e+00 8.020229999999999748e+00 3.283030000000000115e+00 7.078570000000000029e+00 8.892920000000000158e+00 7.816460000000000186e+00 2.460299999999999987e-01 1.463230000000000031e+00 5.146499999999999631e+00 4.442989999999999995e+00 1.036106999999999978e+01 2.195000000000000007e-01 6.955250000000000377e+00 3.485300000000000065e-01 1.433559999999999945e+00 3.291049999999999809e+00 1.032010000000000094e+00 -1.768960000000000088e+00 7.163940000000000197e+00 8.098839999999999151e+00 -8.992999999999999605e-02 5.073959999999999582e+00 7.879100000000000215e+00 5.416310000000000180e+00 1.091730000000000089e+00 7.382500000000000284e+00 3.736580000000000013e+00 4.043989999999999974e+00 6.876730000000000231e+00 5.046199999999999575e-01 2.493329999999999824e+00 4.822400000000000020e+00 -1.720809999999999951e+00 5.493450000000000166e+00 3.442089999999999872e+00 3.849590000000000067e+00 2.493869999999999809e+00 3.803859999999999797e+00 2.245080000000000187e+00 6.030300000000000438e+00 4.621330000000000382e+00
3.400220000000000020e+00 7.068400000000000238e-01 2.812520000000000131e+00 2.274099999999999788e+00 5.251730000000000231e+00 7.514999999999999458e-02 -9.653899999999999704e-01 2.161970000000000169e+00 5.149840000000000195e+00 6.494819999999999816e+00 4.219700000000000117e-01 1.045600000000000085e+00 -1.714339999999999975e+00 6.881260000000000154e+00 1.042277999999999949e+01 -5.095399999999999929e-01 6.569810000000000372e+00 7.218040000000000234e+00 -1.667980000000000018e+00 3.709490000000000176e+00 2.329969999999999875e+00 4.800000000000000122e-04 3.876780000000000115e+00 8.555920000000000414e+00 -2.637700000000000045e-01 1.706609999999999960e+00 2.700369999999999937e+00 4.366200000000000081e-01 3.592859999999999943e+00 1.137668999999999997e+01 3.799409999999999954e+00 7.208140000000000214e+00 1.043314999999999948e+01 5.015249999999999986e+00 2.354039999999999910e+00 1.230539999999999967e+00 -1.882570000000000077e+00 6.617939999999999934e+00 1.303500000000000103e+00 -2.647190000000000154e+00 5.533070000000000377e+00 8.491270000000000095e+00 3.139089999999999936e+00 8.725000000000000533e-01 8.571350000000000691e+00 1.735970000000000013e+00 5.399720000000000297e+00 7.213960000000000150e+00 1.461199999999999999e-01 1.686360000000000081e+00 7.401600000000000179e+00 -1.740189999999999904e+00 4.485330000000000261e+00 4.666850000000000165e+00 5.281240000000000379e+00 8.316799999999999748e-01 4.609790000000000276e+00 2.281050000000000022e+00 6.302319999999999922e+00 2.444500000000000117e+00
3.543029999999999902e+00 1.165200000000000014e+00 1.595779999999999976e+00 2.139790000000000081e+00 4.170079999999999565e+00 1.929559999999999942e+00 -2.788399999999999768e-01 7.958300000000000374e-01 1.223309999999999897e+00 -2.435919999999999863e+00 4.834469999999999601e+00 3.788539999999999797e+00 6.805489999999999817e+00 2.662080000000000002e+00 8.598890000000000811e+00 4.137889999999999624e+00 6.178189999999999849e+00 8.534309999999999619e+00 2.031410000000000160e+00 2.256320000000000103e+00 8.802609999999999602e+00 3.644299999999999762e-01 6.227140000000000342e+00 7.690010000000000012e+00 2.575159999999999894e+00 2.182999999999999871e-02 1.024169000000000018e+01 3.975799999999999890e-01 3.395929999999999893e+00 1.054048000000000052e+01 2.566669999999999785e+00 6.986040000000000028e+00 1.021078999999999937e+01 4.258680000000000021e+00 3.419550000000000090e+00 1.727899999999999991e-01 3.401299999999999879e-01 1.032049999999999912e+00 7.350139999999999674e+00 -2.188349999999999795e+00 5.033249999999999780e+00 7.524359999999999715e+00 4.440409999999999968e+00 1.491559999999999997e+00 7.284229999999999983e+00 2.117389999999999883e+00 4.395679999999999588e+00 7.224230000000000373e+00 1.186739999999999906e+00 1.939789999999999903e+00 3.043509999999999938e+00 -2.898499999999999965e-01 6.048840000000000217e+00 3.742140000000000022e+00 5.283750000000000391e+00 2.229999999999999982e+00 3.564439999999999831e+00 3.628960000000000186e+00 6.101829999999999643e+00 3.331910000000000149e+00
3.574850000000000083e+00 1.742909999999999959e+00 1.996790000000000065e+00 3.024179999999999868e+00 4.505519999999999747e+00 1.087348000000000070e+01 6.048619999999999663e+00 2.327900000000000080e+00 5.434309999999999974e+00 3.865240000000000009e+00 6.811340000000000394e+00 2.067050000000000054e+00 -1.289709999999999912e+00 6.191290000000000404e+00 9.949630000000000862e+00 -2.642399999999999749e-01 6.653739999999999988e+00 6.093709999999999738e+00 -2.885199999999999987e-01 4.212049999999999628e+00 3.290179999999999882e+00 -8.057000000000000273e-02 3.696400000000000130e+00 7.934779999999999944e+00 -3.919099999999999806e-01 1.578240000000000087e+00 3.744489999999999874e+00 2.792200000000000237e-01 3.984389999999999876e+00 1.049618000000000073e+01 3.046019999999999950e+00 6.906139999999999723e+00 1.093848000000000020e+01 4.897090000000000387e+00 2.240600000000000147e+00 1.059458000000000055e+01 -1.811809999999999921e+00 6.895360000000000156e+00 1.516820000000000057e+00 -2.137270000000000003e+00 5.694420000000000037e+00 7.541850000000000165e+00 4.173090000000000188e+00 9.132099999999999662e-01 8.719549999999999912e+00 1.275979999999999892e+00 4.593320000000000292e+00 5.996179999999999843e+00 7.036979999999999791e+00 1.504440000000000000e+00 7.507880000000000109e+00 6.080420000000000158e+00 4.584439999999999849e+00 4.271230000000000082e+00 3.198329999999999895e+00 1.392249999999999988e+00 4.680559999999999832e+00 2.595340000000000202e+00 4.309540000000000148e+00 2.485759999999999970e+00
6.378470000000000084e+00 2.183009999999999895e+00 1.745649999999999924e+00 3.934759999999999813e+00 7.455399999999999805e-01 4.767929999999999779e+00 9.659999999999999698e-01 5.110129999999999839e+00 2.679219999999999935e+00 2.930050000000000043e+00 2.309900000000000009e-01 9.032599999999999518e-01 3.778500000000000192e+00 5.360719999999999708e+00 9.450110000000000454e+00 4.962390000000000079e+00 1.840149999999999952e+00 8.548550000000000537e+00 -1.426630000000000065e+00 5.409200000000000230e+00 7.050060000000000215e+00 7.511900000000000244e-01 2.075829999999999842e+00 9.459360000000000213e+00 -2.861670000000000158e+00 6.815279999999999561e+00 1.036852999999999980e+01 -1.390889999999999960e+00 3.328180000000000138e+00 1.043792999999999971e+01 1.349830000000000085e+00 6.624170000000000336e+00 3.017599999999999727e-01 3.038819999999999855e+00 2.907869999999999955e+00 1.042442999999999920e+01 4.498429999999999929e+00 4.949580000000000091e+00 6.819390000000000285e+00 7.315409999999999968e+00 6.538000000000000478e-01 7.705230000000000246e+00 4.515100000000000224e-01 3.773499999999999854e+00 7.351160000000000139e+00 2.865959999999999841e+00 9.807000000000000162e-01 7.124360000000000248e+00 6.556370000000000253e+00 4.052799999999999736e-01 4.502469999999999750e+00 4.009520000000000195e+00 2.573150000000000048e+00 2.455579999999999874e+00 -1.664819999999999967e+00 5.846639999999999837e+00 2.947410000000000085e+00 -6.117999999999999827e-02 2.672239999999999949e+00 3.849019999999999886e+00
2.482460000000000111e+00 9.137499999999999512e-01 2.013900000000000023e+00 5.445299999999999585e-01 4.658470000000000333e+00 2.053420000000000023e+00 6.468840000000000146e+00 1.163950000000000040e+00 2.460920000000000218e+00 4.718869999999999898e+00 4.487919999999999909e+00 1.990750000000000020e+00 -5.380000000000000060e-02 2.565859999999999808e+00 7.056989999999999874e+00 -2.194280000000000008e+00 6.523760000000000225e+00 8.260350000000000747e+00 4.437420000000000364e+00 3.206109999999999793e+00 9.096339999999999648e+00 2.788520000000000110e+00 6.994419999999999860e+00 9.403280000000000527e+00 -3.079149999999999832e+00 7.037049999999999805e+00 1.037890999999999941e+01 -1.593120000000000092e+00 3.252819999999999823e+00 6.124100000000000099e-01 2.246400000000000063e-01 6.534620000000000317e+00 1.064260999999999946e+01 2.120670000000000055e+00 2.782859999999999889e+00 3.542199999999999793e-01 2.416349999999999998e+00 1.604119999999999990e+00 7.438139999999999752e+00 -1.699600000000000000e-01 4.981209999999999916e+00 7.342889999999999695e+00 5.799249999999999794e+00 1.454620000000000024e+00 7.880720000000000169e+00 3.597820000000000018e+00 5.451810000000000045e+00 7.391300000000000203e+00 3.852499999999999813e-01 2.339399999999999924e+00 3.264460000000000139e+00 -1.913950000000000040e+00 6.172670000000000101e+00 3.718550000000000022e+00 4.474140000000000228e+00 2.220180000000000042e+00 3.646850000000000147e+00 2.482670000000000154e+00 5.800880000000000258e+00 2.973430000000000017e+00
-9.931499999999999773e-01 6.502670000000000172e+00 3.666160000000000085e+00 2.127069999999999794e+00 6.630029999999999646e+00 1.089431000000000083e+01 -3.615900000000000225e-01 3.139149999999999885e+00 5.440419999999999590e+00 7.901980000000000004e+00 5.458499999999999464e-01 1.118449999999999944e+00 -2.487600000000000033e+00 5.590900000000000425e+00 1.068840999999999930e+01 2.219000000000000139e-02 7.064939999999999998e+00 7.599960000000000271e+00 -1.697570000000000023e+00 4.244740000000000180e+00 1.779360000000000053e+00 -7.109999999999999654e-02 4.005580000000000140e+00 8.835459999999999425e+00 4.667499999999999982e-01 2.830029999999999824e+00 2.625239999999999796e+00 1.307630000000000070e+00 3.960620000000000029e+00 1.104681000000000068e+01 4.247709999999999653e+00 7.878370000000000317e+00 1.027072000000000074e+01 5.702790000000000248e+00 3.091159999999999908e+00 1.916400000000000048e-01 -2.398550000000000182e+00 6.929479999999999862e+00 1.647850000000000037e+00 -2.138949999999999907e+00 4.722610000000000419e+00 8.299160000000000537e+00 -3.852800000000000114e-01 7.677909999999999791e+00 1.009807999999999950e+01 1.375110000000000054e+00 4.980179999999999829e+00 6.701800000000000423e+00 7.813430000000000319e+00 1.295430000000000081e+00 7.133020000000000138e+00 6.408000000000000362e+00 4.270789999999999864e+00 4.554520000000000124e+00 3.273229999999999862e+00 2.999899999999999789e-01 5.735109999999999708e+00 1.832850000000000090e+00 6.965959999999999930e+00 2.048529999999999962e+00
3.437710000000000043e+00 6.149200000000000221e-01 2.770529999999999937e+00 2.231609999999999872e+00 5.245519999999999960e+00 7.140000000000000513e-02 -8.534399999999999764e-01 2.169890000000000096e+00 5.155050000000000132e+00 6.532130000000000436e+00 4.873000000000000109e-01 9.811699999999999866e-01 -1.817900000000000071e+00 6.882150000000000212e+00 1.049935999999999936e+01 -5.477400000000000047e-01 6.691539999999999822e+00 7.226370000000000182e+00 -1.770219999999999905e+00 3.823920000000000208e+00 2.321120000000000072e+00 5.890000000000000097e-02 3.969310000000000116e+00 8.587989999999999569e+00 -2.645199999999999774e-01 1.753020000000000023e+00 2.711440000000000072e+00 4.477300000000000169e-01 3.536230000000000206e+00 1.138606000000000051e+01 3.838490000000000180e+00 7.351720000000000255e+00 1.048666000000000054e+01 5.114989999999999704e+00 2.291510000000000158e+00 1.300780000000000047e+00 -1.866230000000000055e+00 6.484880000000000422e+00 1.231780000000000097e+00 6.172069999999999723e+00 5.521410000000000373e+00 8.487890000000000157e+00 3.181540000000000035e+00 9.037100000000000133e-01 8.648110000000000852e+00 1.747640000000000082e+00 5.368380000000000152e+00 7.283999999999999808e+00 1.537499999999999978e-01 1.585579999999999989e+00 7.514420000000000321e+00 -1.863709999999999978e+00 4.580160000000000231e+00 4.775599999999999845e+00 5.235829999999999984e+00 7.845800000000000551e-01 4.672690000000000232e+00 2.440630000000000077e+00 6.332799999999999763e+00 2.423439999999999817e+00
2.569840000000000124e+00 1.271230000000000082e+00 2.110529999999999795e+00 -1.311029999999999918e+00 4.965989999999999682e+00 9.069399999999999684e-01 6.144929999999999559e+00 1.327709999999999946e+00 3.905320000000000125e+00 2.326750000000000096e+00 5.490859999999999630e+00 2.056130000000000013e+00 2.491769999999999818e+00 2.061290000000000067e+00 6.824589999999999712e+00 -2.854700000000000015e-01 4.751490000000000435e+00 5.364200000000000301e+00 5.812669999999999781e+00 3.511649999999999938e+00 8.156620000000000203e+00 3.499070000000000125e+00 7.045309999999999739e+00 8.879910000000000636e+00 7.745759999999999756e+00 2.227699999999999958e-01 1.522520000000000095e+00 5.140769999999999840e+00 4.535980000000000345e+00 1.044439000000000028e+01 3.476500000000000146e-01 7.011989999999999945e+00 5.880300000000000527e-01 1.489109999999999934e+00 3.447509999999999852e+00 8.242399999999999727e-01 -1.737249999999999961e+00 7.147319999999999673e+00 7.887290000000000134e+00 -1.509399999999999908e-01 5.002550000000000274e+00 7.799120000000000275e+00 5.579749999999999766e+00 1.044740000000000002e+00 7.349890000000000256e+00 3.640899999999999803e+00 4.292180000000000106e+00 6.810690000000000133e+00 4.642399999999999860e-01 2.170599999999999863e+00 4.539189999999999614e+00 -1.731870000000000021e+00 5.647369999999999557e+00 3.472609999999999975e+00 4.052780000000000271e+00 2.435979999999999812e+00 3.873260000000000147e+00 2.324530000000000207e+00 5.918210000000000193e+00 4.613069999999999560e+00
