8.606441457000000739e+00 0.000000000000000000e+00 0.000000000000000000e+00 -4.450603347999999571e+00 7.004295590999999988e+00 0.000000000000000000e+00 2.568051781999999950e+00 2.865556660999999838e+00 1.040496578499999991e+01
8.138748123999999251e+00 0.000000000000000000e+00 0.000000000000000000e+00 -3.863602356999999987e+00 7.338628910999999810e+00 0.000000000000000000e+00 9.462913800000000153e-02 4.221214600000000039e-01 1.110827105299999928e+01
7.963971485000000072e+00 0.000000000000000000e+00 0.000000000000000000e+00 -3.888285343999999810e+00 7.235408302999999819e+00 0.000000000000000000e+00 2.803435358000000210e+00 -2.727687719999999927e-01 1.113477542699999923e+01
8.036790995000000493e+00 0.000000000000000000e+00 0.000000000000000000e+00 -3.569479387999999975e+00 7.603532020000000280e+00 0.000000000000000000e+00 -1.970689700000000100e+00 -3.033647535000000062e+00 1.025756166699999916e+01
8.334705569000000480e+00 0.000000000000000000e+00 0.000000000000000000e+00 -4.315797217000000074e+00 7.187085047000000060e+00 0.000000000000000000e+00 -3.514889449999999971e-01 -3.002348939999999744e-01 1.252147761300000006e+01
8.140922338999999397e+00 0.000000000000000000e+00 0.000000000000000000e+00 -4.481930189999999925e+00 7.213082669000000280e+00 0.000000000000000000e+00 -1.987037297000000091e+00 -4.932285699999999773e-02 1.017324175100000083e+01
8.099019610999999230e+00 0.000000000000000000e+00 0.000000000000000000e+00 -3.391664149999999989e+00 7.409718064999999854e+00 0.000000000000000000e+00 -2.967829802999999877e+00 1.241642477000000078e+00 1.112517845500000035e+01
8.118653474000000259e+00 0.000000000000000000e+00 0.000000000000000000e+00 -3.794693035999999964e+00 7.044594534999999880e+00 0.000000000000000000e+00 7.566745259999999584e-01 -2.223867860000000030e-01 1.338917491700000006e+01
8.408553808000000629e+00 0.000000000000000000e+00 0.000000000000000000e+00 -4.199108428999999809e+00 7.163216092999999951e+00 0.000000000000000000e+00 -2.144245800000000035e-01 -3.897471109999999794e-01 1.257115932199999975e+01
8.471685793000000686e+00 0.000000000000000000e+00 0.000000000000000000e+00 -4.467631906000000264e+00 7.537602834000000307e+00 0.000000000000000000e+00 2.233841721000000113e+00 -4.753788749999999785e-01 1.400486190500000028e+01
8.243103481000000343e+00 0.000000000000000000e+00 0.000000000000000000e+00 -4.420907402000000097e+00 7.165073048000000000e+00 0.000000000000000000e+00 3.413375090000000167e+00 -3.909813043000000210e+00 1.039582318799999960e+01
8.595268960000000291e+00 0.000000000000000000e+00 0.000000000000000000e+00 -4.351405373999999604e+00 7.066828105999999998e+00 0.000000000000000000e+00 -1.997344030000000048e-01 2.738309522999999857e+00 1.199540105500000031e+01
8.649909754999999478e+00 0.000000000000000000e+00 0.000000000000000000e+00 -4.779287409000000153e+00 6.804237367999999897e+00 0.000000000000000000e+00 -5.831935299999999739e-02 2.022697440000000013e-01 1.066809386499999945e+01
8.390143883000000358e+00 0.000000000000000000e+00 0.000000000000000000e+00 4.376537665999999938e+00 7.074720112999999699e+00 0.000000000000000000e+00 -6.364012489999999467e-01 -2.169489761999999988e+00 1.096204856099999958e+01
8.158732107000000511e+00 0.000000000000000000e+00 0.000000000000000000e+00 -4.339983488999999750e+00 6.927952551999999820e+00 0.000000000000000000e+00 2.851522693999999802e+00 -1.364069004000000085e+00 1.111874837599999921e+01
8.563526517999999754e+00 0.000000000000000000e+00 0.000000000000000000e+00 -4.483940020000000359e+00 7.016783906999999765e+00 0.000000000000000000e+00 2.543858278000000084e+00 2.949941914000000054e+00 1.045248479800000041e+01
8.106126335000000793e+00 0.000000000000000000e+00 0.000000000000000000e+00 -4.414230247999999968e+00 7.308758862000000356e+00 0.000000000000000000e+00 -1.920973872000000027e+00 -2.774308635000000134e+00 1.203525798799999968e+01
8.444370148000000853e+00 0.000000000000000000e+00 0.000000000000000000e+00 -4.121599240000000108e+00 7.248458722999999715e+00 0.000000000000000000e+00 3.800435300999999821e+00 -4.383997370000000116e-01 2.454946935899999971e+01
8.489419067000000041e+00 0.000000000000000000e+00 0.000000000000000000e+00 -4.048524084000000300e+00 7.056528640999999880e+00 0.000000000000000000e+00 -1.878239422000000047e+00 -1.744009209999999865e-01 1.126834025500000003e+01
8.407057627000000366e+00 0.000000000000000000e+00 0.000000000000000000e+00 -4.046664132000000080e+00 7.304113195000000225e+00 0.000000000000000000e+00 1.876880461999999916e+00 -1.102161347000000013e+00 1.081905503399999979e+01
8.070843323000000069e+00 0.000000000000000000e+00 0.000000000000000000e+00 -4.197781436999999727e+00 7.142779396999999975e+00 0.000000000000000000e+00 4.381527601000000161e+00 1.914619636999999930e+00 1.118732845699999956e+01
8.039038527000000656e+00 0.000000000000000000e+00 0.000000000000000000e+00 -3.809062073000000215e+00 7.063398968000000444e+00 0.000000000000000000e+00 8.951529620000000520e-01 -2.239904920000000133e-01 1.345417733600000076e+01
8.058992021999999977e+00 0.000000000000000000e+00 0.000000000000000000e+00 -3.532774369999999831e+00 7.148103773999999966e+00 0.000000000000000000e+00 3.134161941999999978e+00 -6.627011769999999746e-01 1.577667936799999993e+01
8.191784050000000761e+00 0.000000000000000000e+00 0.000000000000000000e+00 3.561151172000000198e+00 7.283455727999999851e+00 0.000000000000000000e+00 1.365337884999999973e+00 -2.760193507999999962e+00 1.110746039100000004e+01
8.120065752000000359e+00 0.000000000000000000e+00 0.000000000000000000e+00 -3.855796316999999807e+00 7.366825262999999957e+00 0.000000000000000000e+00 9.626105399999999868e-02 3.332976340000000093e-01 1.098889353500000077e+01
8.444396674000000047e+00 0.000000000000000000e+00 0.000000000000000000e+00 -4.650876010000000171e+00 7.442733427000000290e+00 0.000000000000000000e+00 2.556676921000000213e+00 -8.869296559999999552e-01 1.446478828999999955e+01
8.243449518000000253e+00 0.000000000000000000e+00 0.000000000000000000e+00 -4.248876626999999573e+00 7.461684714000000440e+00 0.000000000000000000e+00 3.303969074999999922e+00 -4.988198589999999766e-01 1.097746286599999976e+01
8.109420158000000711e+00 0.000000000000000000e+00 0.000000000000000000e+00 -4.322507270000000013e+00 7.295778409000000408e+00 0.000000000000000000e+00 -1.934838615000000095e+00 -2.693705656000000115e+00 1.208185487100000088e+01
8.042034281999999479e+00 0.000000000000000000e+00 0.000000000000000000e+00 -3.618864552999999873e+00 7.886914777000000321e+00 0.000000000000000000e+00 -3.237617252000000168e+00 -3.621319435000000198e+00 1.091162476999999953e+01
8.322324310000000835e+00 0.000000000000000000e+00 0.000000000000000000e+00 -4.141131577000000341e+00 7.445214982000000425e+00 0.000000000000000000e+00 8.091277249999999643e-01 -2.161781062999999836e+00 1.091520018900000011e+01
8.594747484999999187e+00 0.000000000000000000e+00 0.000000000000000000e+00 -3.959451379999999965e+00 7.041248862999999858e+00 0.000000000000000000e+00 2.670833930000000023e-01 -2.470395609999999909e-01 1.289098114899999992e+01
8.036359589999999997e+00 0.000000000000000000e+00 0.000000000000000000e+00 -3.981448256000000185e+00 7.225190849999999720e+00 0.000000000000000000e+00 3.197932290999999871e+00 1.075248463999999959e+00 1.138333647199999987e+01
8.696187970000000433e+00 0.000000000000000000e+00 0.000000000000000000e+00 -4.258441016999999995e+00 6.956049210999999843e+00 0.000000000000000000e+00 -7.619367209999999835e-01 2.481089852999999845e+00 1.053566122099999980e+01
8.391436202999999594e+00 0.000000000000000000e+00 0.000000000000000000e+00 4.474849228000000068e+00 7.186400107999999953e+00 0.000000000000000000e+00 -6.476888899999999616e-01 -2.210629083999999800e+00 1.091902119100000057e+01
8.514303613999999243e+00 0.000000000000000000e+00 0.000000000000000000e+00 -3.903439548000000148e+00 7.041132789999999808e+00 0.000000000000000000e+00 3.920190219999999948e-01 -2.253146829999999878e-01 1.304249125199999959e+01
8.391386904999999174e+00 0.000000000000000000e+00 0.000000000000000000e+00 -3.852675672000000162e+00 7.044836373999999957e+00 0.000000000000000000e+00 5.148316010000000276e-01 -2.179164939999999884e-01 1.319491460200000077e+01
8.317607776999999203e+00 0.000000000000000000e+00 0.000000000000000000e+00 -4.229522940999999925e+00 7.419968735000000315e+00 0.000000000000000000e+00 1.813410404000000087e+00 -2.701077570000000039e-01 1.385677331299999970e+01
8.704787148999999502e+00 0.000000000000000000e+00 0.000000000000000000e+00 -4.630372608000000056e+00 6.935868348999999711e+00 0.000000000000000000e+00 3.290739003000000107e+00 5.678164530000000543e-01 1.137391024000000073e+01
8.366077325999999204e+00 0.000000000000000000e+00 0.000000000000000000e+00 -4.088614009999999688e+00 7.242371215999999556e+00 0.000000000000000000e+00 4.576048679999999980e-01 -1.354763104000000107e+00 1.119521190200000049e+01
8.216504637999999971e+00 0.000000000000000000e+00 0.000000000000000000e+00 -4.136647180999999840e+00 6.981202041000000413e+00 0.000000000000000000e+00 -4.936388509999999896e-01 -1.536798040999999948e+00 1.134287982999999933e+01
8.619813235000000518e+00 0.000000000000000000e+00 0.000000000000000000e+00 -4.017741077000000161e+00 7.055288393999999741e+00 0.000000000000000000e+00 1.392169649999999981e-01 -2.828502430000000012e-01 1.277050486199999924e+01
8.469656008999999486e+00 0.000000000000000000e+00 0.000000000000000000e+00 -4.175035487999999795e+00 7.127824824000000170e+00 0.000000000000000000e+00 -1.920909248000000069e+00 -1.685545960000000010e-01 1.094908882000000006e+01
8.476977862000000030e+00 0.000000000000000000e+00 0.000000000000000000e+00 -4.549245355000000046e+00 7.536328107000000109e+00 0.000000000000000000e+00 2.367657401999999855e+00 -6.280395699999999914e-01 1.410613173499999995e+01
8.139223791999999236e+00 0.000000000000000000e+00 0.000000000000000000e+00 -4.250745840000000442e+00 7.184691521000000414e+00 0.000000000000000000e+00 2.664480408999999828e+00 -7.539520060000000079e-01 1.070221412399999927e+01
8.528901141000000408e+00 0.000000000000000000e+00 0.000000000000000000e+00 -4.344271714999999645e+00 7.013358810999999804e+00 0.000000000000000000e+00 4.035353781000000417e+00 -4.189853215000000297e+00 1.196633946500000079e+01
8.271699715000000452e+00 0.000000000000000000e+00 0.000000000000000000e+00 -4.233284706000000064e+00 7.241579102000000212e+00 0.000000000000000000e+00 8.327099390000000101e-01 -1.128797907000000045e+00 1.095595100399999922e+01
8.345991835999999608e+00 0.000000000000000000e+00 0.000000000000000000e+00 -4.417190281999999968e+00 7.450359500000000246e+00 0.000000000000000000e+00 3.377372450999999831e+00 -5.493952279999999577e-01 1.145173300599999955e+01
8.734020955000000086e+00 0.000000000000000000e+00 0.000000000000000000e+00 -4.594483142999999714e+00 7.086946401999999701e+00 0.000000000000000000e+00 -8.383843829999999553e-01 1.686016881000000023e+00 1.047019001800000026e+01
8.430898129999999213e+00 0.000000000000000000e+00 0.000000000000000000e+00 -4.643750746000000262e+00 7.301820064000000166e+00 0.000000000000000000e+00 2.719896493999999887e+00 -9.529410149999999469e-01 1.495663723700000070e+01
8.578280685999999378e+00 0.000000000000000000e+00 0.000000000000000000e+00 -4.055032769000000314e+00 6.829752641999999874e+00 0.000000000000000000e+00 4.991215114000000064e+00 -1.212214620000000020e-01 1.187621730000000042e+01
