8.496700000000000363e-01 7.939599999999999991e-01 1.158009999999999984e+00 6.938640000000000363e+00 3.880360000000000031e+00 2.260979999999999990e+00 5.255510000000000126e+00 8.229100000000000303e-01 1.743919999999999915e+00 2.704779999999999962e+00 4.345299999999999940e+00 3.087899999999999867e+00 3.616540000000000088e+00 5.900129999999999875e+00 8.332770000000000010e+00 5.585729999999999862e+00 2.393590000000000106e+00 8.448330000000000339e+00 7.781930000000000014e+00 5.584410000000000096e+00 8.096669999999999590e+00 1.002297000000000082e+01 2.313810000000000144e+00 8.039239999999999498e+00 -1.408139999999999947e+00 6.689219999999999722e+00 6.070200000000000040e-01 5.071559999999999846e+00 3.389200000000000212e+00 8.007000000000000228e-02 3.001599999999999824e+00 6.642780000000000129e+00 2.208700000000000108e-01 7.779500000000000304e-01 3.300460000000000171e+00 4.727100000000000191e-01 5.696480000000000210e+00 4.762310000000000265e+00 6.921059999999999768e+00 3.302700000000000191e+00 8.348409999999999442e+00 7.119679999999999787e+00 1.522289999999999921e+00 4.841450000000000031e+00 6.910669999999999646e+00 -6.373400000000000176e-01 8.212669999999999249e+00 7.133650000000000269e+00 7.283769999999999634e+00 1.345499999999999918e+00 3.102609999999999868e+00 5.183259999999999756e+00 5.797690000000000232e+00 2.976440000000000197e+00 3.054710000000000036e+00 1.783260000000000067e+00 3.067660000000000053e+00 2.261100000000000054e-01 5.067420000000000258e+00 3.628639999999999866e+00
1.860570000000000057e+00 1.422169999999999934e+00 2.277719999999999967e+00 -1.198000000000000037e-01 4.921170000000000044e+00 1.647359999999999935e+00 6.102990000000000137e+00 1.582300000000000040e+00 2.428840000000000110e+00 3.912020000000000053e+00 5.077989999999999782e+00 2.536700000000000177e+00 5.677499999999999769e-01 3.260510000000000019e+00 8.680899999999999395e+00 -1.732830000000000092e+00 6.853869999999999685e+00 8.979589999999999961e+00 4.569060000000000343e+00 2.678949999999999942e+00 9.397930000000000561e+00 2.492059999999999942e+00 6.581979999999999720e+00 8.593799999999999883e+00 3.288460000000000161e+00 6.729230000000000267e+00 5.458100000000000174e-01 6.267689999999999984e+00 2.975140000000000118e+00 8.676000000000000378e-02 6.615000000000000047e-02 7.284679999999999822e+00 1.068702000000000041e+01 2.087549999999999795e+00 3.321349999999999802e+00 1.088331999999999944e+01 2.723310000000000120e+00 1.730580000000000007e+00 7.455739999999999590e+00 4.285599999999999965e-01 5.361970000000000347e+00 7.362639999999999851e+00 6.633259999999999934e+00 1.586019999999999985e+00 7.714279999999999582e+00 4.622379999999999711e+00 5.247040000000000148e+00 7.927410000000000068e+00 -1.350500000000000034e-01 2.824510000000000076e+00 3.506409999999999805e+00 -1.674539999999999917e+00 6.237639999999999851e+00 3.346929999999999961e+00 3.914070000000000160e+00 2.722269999999999968e+00 3.665410000000000057e+00 1.963810000000000056e+00 6.466779999999999973e+00 3.294750000000000068e+00
1.697459999999999969e+00 8.970000000000000195e-01 1.649240000000000039e+00 -8.044299999999999784e-01 4.565330000000000332e+00 2.425969999999999960e+00 5.339349999999999596e+00 8.963799999999999546e-01 2.361400000000000166e+00 3.978489999999999860e+00 4.882629999999999804e+00 1.753519999999999968e+00 2.983760000000000190e+00 2.370969999999999800e+00 8.969300000000000495e+00 1.060699999999999976e+00 6.305119999999999614e+00 9.194039999999999324e+00 7.333350000000000257e+00 1.926050000000000040e+00 9.372870000000000701e+00 5.443260000000000431e+00 5.510069999999999801e+00 9.018140000000000711e+00 2.998850000000000016e+00 3.429400000000000226e-01 1.062128000000000050e+01 -1.590489999999999959e+00 4.236970000000000347e+00 8.999999999999999667e-02 7.321390000000000065e+00 -1.852699999999999902e-01 1.101957999999999949e+01 5.345110000000000028e+00 3.474019999999999886e+00 1.103308000000000000e+01 5.120470000000000077e+00 1.282980000000000009e+00 7.632710000000000328e+00 3.014470000000000205e+00 4.740400000000000169e+00 8.049450000000000216e+00 9.130449999999999733e+00 5.843699999999999450e-01 7.821699999999999875e+00 -2.614400000000000057e-01 4.324180000000000135e+00 7.751570000000000071e+00 7.361139999999999795e+00 2.203559999999999963e+00 3.634920000000000151e+00 5.250219999999999665e+00 6.290180000000000327e+00 3.529259999999999842e+00 3.131749999999999812e+00 2.490870000000000140e+00 3.242700000000000138e+00 1.791169999999999929e+00 5.745700000000000252e+00 3.198989999999999778e+00
1.794410000000000061e+00 4.751400000000000068e-01 2.095540000000000180e+00 3.770299999999999763e-01 5.381780000000000008e+00 1.687840000000000007e+00 5.640570000000000306e+00 8.625000000000000444e-01 2.371960000000000068e+00 4.070599999999999774e+00 5.079259999999999664e+00 1.759910000000000085e+00 -1.999700000000000033e+00 3.364999999999999936e-02 8.281200000000000117e+00 -3.536029999999999784e+00 4.043910000000000338e+00 8.177170000000000272e+00 2.182100000000000151e+00 2.137000000000000011e-01 7.757539999999999658e+00 4.039300000000000113e-01 3.447630000000000194e+00 8.103289999999999438e+00 -3.220139999999999780e+00 7.198279999999999568e+00 7.571999999999999564e-02 -6.591900000000000537e-01 3.608509999999999884e+00 4.759300000000000197e-01 2.562710000000000043e+00 -2.968140000000000001e+00 1.015480999999999945e+01 7.682799999999999629e-01 7.094500000000000250e-01 1.005270999999999937e+01 5.220000000000000334e-02 -1.063620000000000010e+00 7.343099999999999739e+00 -1.881010000000000071e+00 2.407129999999999992e+00 7.152599999999999625e+00 3.962779999999999969e+00 -1.529700000000000060e+00 7.193299999999999805e+00 2.803580000000000183e+00 2.536989999999999856e+00 6.881680000000000241e+00 -3.574999999999999706e-02 1.646460000000000035e+00 3.360529999999999795e+00 -1.676069999999999949e+00 5.509380000000000166e+00 3.298150000000000137e+00 3.655889999999999862e+00 2.061640000000000139e+00 3.375300000000000189e+00 2.131320000000000103e+00 5.999399999999999622e+00 3.328590000000000160e+00
2.201200000000000045e+00 2.322350000000000136e+00 2.407230000000000203e+00 -2.091000000000000081e-01 5.807059999999999889e+00 3.099800000000000111e+00 6.201310000000000322e+00 2.050110000000000099e+00 1.287479999999999958e+00 3.574469999999999814e+00 5.806119999999999948e+00 1.490639999999999965e+00 -3.255500000000000060e-01 8.694199999999999706e-01 1.037583000000000055e+01 -2.511099999999999888e+00 4.213989999999999903e+00 1.033395999999999937e+01 3.760600000000000165e+00 4.866199999999999970e-01 1.016768000000000072e+01 1.892910000000000093e+00 4.311079999999999579e+00 1.025688000000000066e+01 9.207999999999999519e-02 1.060899999999999954e+00 3.731499999999999817e-01 -2.225839999999999819e+00 4.556470000000000020e+00 2.660299999999999887e-01 4.193120000000000402e+00 7.847499999999999476e-01 2.114699999999999913e-01 1.541879999999999917e+00 4.639269999999999783e+00 2.926599999999999757e-01 -2.492059999999999942e+00 6.704690000000000261e+00 8.875590000000000757e+00 -3.989800000000000013e-01 3.137760000000000105e+00 9.191090000000000870e+00 1.589269999999999960e+00 6.837360000000000326e+00 9.098649999999999238e+00 3.739219999999999988e+00 3.162349999999999994e+00 8.902169999999999916e+00 -9.621999999999999997e-02 3.338940000000000019e+00 3.229940000000000033e+00 2.216450000000000031e+00 2.091000000000000150e-02 4.097310000000000230e+00 4.453759999999999941e+00 3.375599999999999934e+00 3.121039999999999814e+00 6.089459999999999873e+00 8.364000000000000601e-02 3.373749999999999805e+00
1.985600000000000032e+00 2.228590000000000071e+00 1.738050000000000095e+00 -3.337700000000000111e-01 6.269560000000000244e+00 2.782869999999999955e+00 5.862079999999999735e+00 2.482209999999999805e+00 2.622360000000000024e+00 3.812530000000000197e+00 5.112440000000000317e+00 7.602600000000000469e-01 -2.132690000000000197e+00 9.586599999999999566e-01 8.045650000000000190e+00 -4.130359999999999587e+00 4.722579999999999778e+00 7.832779999999999632e+00 2.088849999999999874e+00 9.859799999999999676e-01 8.091850000000000875e+00 -1.506899999999999906e-01 4.441749999999999865e+00 7.911780000000000257e+00 2.018199999999999994e-01 5.790800000000000392e-01 2.527499999999999747e-01 -2.109840000000000160e+00 4.210399999999999920e+00 1.733200000000000018e-01 4.071659999999999613e+00 1.170570000000000110e+00 5.427499999999999547e-01 1.189670000000000005e+00 4.396230000000000082e+00 2.953100000000000169e-01 -4.576340000000000074e+00 7.108150000000000190e+00 6.853150000000000297e+00 -2.165439999999999809e+00 3.348590000000000177e+00 6.684409999999999741e+00 -4.563699999999999979e-01 6.890439999999999898e+00 6.893469999999999764e+00 2.069749999999999979e+00 3.359560000000000102e+00 6.646829999999999572e+00 -1.050299999999999984e-01 3.494289999999999896e+00 3.162720000000000198e+00 -2.827329999999999899e+00 7.064280000000000115e+00 3.315030000000000143e+00 3.732540000000000191e+00 3.910750000000000171e+00 3.230440000000000200e+00 6.259689999999999976e+00 1.876800000000000135e-01 3.944259999999999877e+00
2.029850000000000154e+00 2.893740000000000201e+00 2.694970000000000088e+00 -3.787999999999999701e-02 6.670869999999999855e+00 1.454490000000000061e+00 5.458929999999999616e+00 2.193439999999999834e+00 2.560439999999999827e+00 4.103519999999999612e+00 6.018849999999999589e+00 1.750050000000000106e+00 -2.495519999999999960e+00 2.053080000000000016e+00 8.682740000000000791e+00 -4.191889999999999894e+00 5.912309999999999732e+00 8.812680000000000291e+00 2.514209999999999834e+00 1.752389999999999892e+00 9.710779999999999745e+00 8.894000000000000516e-02 5.776379999999999626e+00 8.622189999999999799e+00 -3.349190000000000111e+00 2.444890000000000008e+00 1.110059000000000040e+01 -1.704450000000000021e+00 4.889000000000000234e+00 2.557099999999999929e-01 3.821450000000000014e+00 1.629490000000000105e+00 2.621399999999999841e-01 2.223800000000000221e+00 4.997919999999999696e+00 6.290999999999999370e-02 -3.514559999999999906e+00 8.242860000000000298e+00 8.022460000000000591e+00 -2.325499999999999901e+00 4.435819999999999652e+00 7.518150000000000333e+00 2.169599999999999862e-01 8.225740000000000052e+00 7.371870000000000367e+00 2.005389999999999784e+00 3.944020000000000081e+00 7.949349999999999916e+00 -4.247199999999999864e-01 3.173290000000000166e+00 3.244569999999999954e+00 -1.949570000000000025e+00 7.728670000000000151e+00 2.994019999999999904e+00 4.198610000000000397e+00 3.922639999999999905e+00 3.761779999999999902e+00 1.942139999999999977e+00 6.924369999999999692e+00 3.370550000000000157e+00
2.244720000000000049e+00 2.126590000000000202e+00 1.867410000000000014e+00 6.623299999999999743e-01 5.751719999999999722e+00 3.587629999999999875e+00 5.992919999999999803e+00 2.454790000000000028e+00 1.515579999999999927e+00 4.015279999999999738e+00 5.656850000000000378e+00 1.819550000000000001e+00 6.121100000000000430e-01 8.066400000000000237e-01 1.099085000000000001e+01 -1.132370000000000099e+00 4.288940000000000197e+00 1.093745000000000012e+01 4.777779999999999916e+00 6.258599999999999719e-01 1.099884999999999913e+01 2.778389999999999915e+00 4.121279999999999610e+00 1.145148000000000010e+01 7.069999999999999896e-03 7.587000000000000410e-01 3.404000000000000081e-02 -1.598819999999999908e+00 4.670720000000000205e+00 2.257699999999999985e-01 4.105620000000000047e+00 8.761100000000000554e-01 1.574099999999999944e-01 1.973060000000000036e+00 4.431280000000000108e+00 4.923799999999999844e-01 -9.791400000000000103e-01 6.693839999999999790e+00 9.664350000000000662e+00 8.564300000000000246e-01 3.084940000000000015e+00 9.798909999999999343e+00 2.942390000000000061e+00 6.499500000000000277e+00 9.894220000000000681e+00 4.846650000000000347e+00 3.260639999999999983e+00 9.960810000000000386e+00 3.415400000000000102e-01 3.271710000000000118e+00 3.515779999999999905e+00 -1.676579999999999959e+00 6.816749999999999865e+00 3.456960000000000033e+00 4.236889999999999823e+00 3.296489999999999920e+00 3.366460000000000008e+00 6.257600000000000051e+00 3.484800000000000120e-01 3.530050000000000132e+00
2.216000000000000192e+00 2.242799999999999905e+00 2.284320000000000128e+00 -2.471999999999999892e-02 5.791150000000000020e+00 3.111540000000000195e+00 6.283369999999999678e+00 2.116239999999999899e+00 1.254019999999999913e+00 3.657169999999999810e+00 5.694880000000000386e+00 1.683289999999999953e+00 -2.295000000000000095e-01 7.168700000000000072e-01 1.040329000000000015e+01 -2.368209999999999926e+00 4.226469999999999949e+00 1.023822999999999972e+01 3.949359999999999982e+00 3.301999999999999935e-01 1.021561999999999948e+01 2.051349999999999785e+00 4.273659999999999570e+00 1.053462000000000032e+01 6.636000000000000232e-02 1.081150000000000055e+00 3.954900000000000082e-01 -1.905469999999999997e+00 4.531489999999999796e+00 2.957600000000000229e-01 4.258040000000000269e+00 7.872200000000000308e-01 1.623400000000000121e-01 1.657489999999999908e+00 4.683449999999999669e+00 3.486899999999999999e-01 -2.253690000000000193e+00 6.649879999999999569e+00 8.945429999999999993e+00 -9.128999999999999615e-02 3.134320000000000217e+00 9.226000000000000867e+00 1.925410000000000066e+00 6.629139999999999588e+00 8.998060000000000613e+00 4.107759999999999856e+00 3.084950000000000081e+00 9.159950000000000259e+00 5.668999999999999734e-02 3.202550000000000008e+00 3.225690000000000168e+00 2.198679999999999968e+00 -7.614999999999999547e-02 4.025570000000000093e+00 4.378379999999999939e+00 3.490650000000000031e+00 2.911799999999999944e+00 6.338840000000000252e+00 5.544000000000000317e-02 3.381559999999999899e+00
2.304310000000000080e+00 2.329670000000000130e+00 1.735929999999999973e+00 1.129300000000000026e-01 6.056960000000000122e+00 3.517300000000000093e+00 6.481519999999999726e+00 2.384560000000000013e+00 1.964010000000000034e+00 4.225480000000000125e+00 5.922130000000000116e+00 1.826049999999999951e+00 2.004249999999999865e+00 3.309699999999999864e-01 1.161872999999999934e+01 -3.331100000000000172e-01 4.359499999999999709e+00 1.169772000000000034e+01 6.195610000000000284e+00 1.064570000000000016e+00 1.188081999999999994e+01 3.900990000000000180e+00 4.272920000000000051e+00 1.159323999999999977e+01 2.297860000000000014e+00 1.066419999999999924e+00 1.395317000000000007e+01 -2.463429999999999787e+00 5.041350000000000442e+00 3.024399999999999866e-01 4.269079999999999764e+00 1.119150000000000089e+00 4.695300000000000029e-01 2.027649999999999952e+00 4.861449999999999605e+00 4.379999999999999866e-02 -3.802599999999999869e-01 6.698220000000000063e+00 1.061877999999999922e+01 1.748050000000000104e+00 3.067000000000000171e+00 1.051786000000000065e+01 3.737620000000000164e+00 6.743900000000000006e+00 1.071439999999999948e+01 6.049229999999999663e+00 3.048290000000000166e+00 1.036370999999999931e+01 -2.300999999999999920e-02 3.319500000000000117e+00 3.452319999999999833e+00 2.525409999999999933e+00 -2.554000000000000020e-02 3.096979999999999844e+00 4.399689999999999657e+00 3.376999999999999780e+00 3.445520000000000138e+00 2.498359999999999914e+00 7.303320000000000256e+00 3.291030000000000122e+00
1.864749999999999908e+00 1.825649999999999995e+00 2.652499999999999858e+00 1.473500000000000087e-01 5.328940000000000232e+00 1.702309999999999990e+00 5.771060000000000301e+00 1.867399999999999949e+00 2.035829999999999806e+00 3.925370000000000026e+00 5.631990000000000052e+00 1.889720000000000066e+00 3.147219999999999906e+00 -2.748299999999999965e+00 7.742910000000000181e+00 1.225659999999999972e+00 1.328179999999999916e+00 8.159200000000000230e+00 7.455070000000000086e+00 -2.181770000000000209e+00 8.512539999999999552e+00 5.371780000000000221e+00 1.047509999999999941e+00 8.328929999999999723e+00 -1.137100000000000055e-01 3.803000000000000269e-01 1.779999999999999985e-02 -2.281730000000000036e+00 4.610019999999999563e+00 2.722399999999999820e-01 4.330049999999999955e+00 8.368600000000000483e-01 4.381999999999999784e-01 1.820300000000000029e+00 4.036620000000000097e+00 3.268699999999999939e-01 1.127999999999999892e+00 3.677000000000000046e+00 7.301249999999999574e+00 3.208610000000000184e+00 -8.759000000000000119e-02 7.067859999999999587e+00 5.008639999999999759e+00 3.130020000000000024e+00 6.871579999999999799e+00 7.579039999999999999e+00 1.556200000000000083e-01 6.883759999999999657e+00 -2.586300000000000265e-01 3.122500000000000053e+00 3.099590000000000067e+00 2.291589999999999794e+00 -6.907200000000000006e-01 3.082520000000000149e+00 4.005860000000000198e+00 3.287180000000000213e+00 3.677979999999999805e+00 5.998579999999999579e+00 -4.027800000000000269e-01 3.338639999999999830e+00
-3.367760000000000087e+00 7.580969999999999764e+00 2.310540000000000038e+00 -1.081790000000000029e+00 4.267599999999999838e+00 2.260530000000000150e+00 5.302900000000000169e+00 6.781300000000000106e-01 1.843299999999999939e+00 3.098899999999999988e+00 4.206660000000000288e+00 2.223669999999999813e+00 4.017999999999999905e-01 5.871990000000000265e+00 9.603279999999999816e+00 2.935239999999999849e+00 2.415000000000000036e+00 9.798780000000000712e+00 4.949150000000000382e+00 5.689020000000000188e+00 9.859510000000000218e+00 7.006520000000000081e+00 2.245350000000000179e+00 9.440899999999999181e+00 -1.159750000000000059e+00 6.400319999999999787e+00 7.417200000000000459e-01 5.371590000000000309e+00 3.316609999999999836e+00 3.839799999999999880e-01 2.285359999999999836e+00 9.201219999999999288e+00 1.195298999999999978e+01 1.155529999999999946e+00 3.042209999999999859e+00 2.582099999999999951e-01 2.695770000000000000e+00 5.081319999999999837e+00 8.677720000000000766e+00 4.654699999999999949e-01 8.532740000000000435e+00 8.341440000000000410e+00 6.598880000000000301e+00 4.626089999999999591e+00 8.467249999999999943e+00 -3.531859999999999999e+00 8.256510000000000460e+00 8.612180000000000391e+00 7.346989999999999910e+00 1.634540000000000104e+00 3.122290000000000010e+00 5.288660000000000139e+00 5.260510000000000019e+00 3.448310000000000208e+00 3.002540000000000209e+00 1.513490000000000002e+00 3.531559999999999810e+00 9.941999999999999726e-01 5.641879999999999562e+00 3.329940000000000122e+00
2.048329999999999984e+00 1.576049999999999951e+00 2.378909999999999858e+00 -1.112970000000000015e+00 4.873960000000000292e+00 2.331970000000000098e+00 6.747729999999999784e+00 1.019930000000000003e+00 1.399140000000000050e+00 3.118139999999999912e+00 4.753750000000000142e+00 2.183920000000000083e+00 4.117899999999999894e-01 2.298810000000000020e+00 8.443949999999999179e+00 -2.039509999999999934e+00 5.535239999999999938e+00 8.132899999999999352e+00 3.969899999999999984e+00 2.583120000000000083e+00 9.383869999999999933e+00 2.339100000000000179e+00 6.052959999999999674e+00 8.225270000000000081e+00 3.829279999999999795e+00 6.143410000000000259e+00 1.349200000000000121e-01 6.328490000000000393e+00 3.194770000000000110e+00 1.834899999999999864e-01 -4.820300000000000140e-01 6.586420000000000385e+00 3.583999999999999686e-02 1.465759999999999952e+00 3.038269999999999804e+00 1.062702999999999953e+01 2.489349999999999952e+00 1.299949999999999939e+00 7.216260000000000119e+00 4.246500000000000274e-01 4.652059999999999640e+00 7.244810000000000194e+00 6.650500000000000078e+00 1.651950000000000029e+00 7.435260000000000424e+00 4.171789999999999665e+00 4.563729999999999620e+00 7.422069999999999723e+00 -6.886100000000000554e-01 2.227829999999999977e+00 3.362210000000000143e+00 -3.067120000000000068e+00 5.946159999999999890e+00 3.633420000000000094e+00 4.165490000000000137e+00 2.796120000000000161e+00 2.994860000000000078e+00 1.067220000000000057e+00 6.057800000000000296e+00 3.317120000000000068e+00
6.044929999999999914e+00 4.615920000000000023e+00 1.687650000000000095e+00 8.576650000000000773e+00 1.376579999999999915e+00 2.483670000000000044e+00 1.038906000000000063e+01 5.133810000000000429e+00 2.367550000000000043e+00 4.004629999999999690e+00 1.380209999999999937e+00 2.170770000000000088e+00 7.008499999999999730e+00 2.939890000000000114e+00 8.865180000000000504e+00 8.379699999999999926e-01 -5.579800000000000315e-01 8.747960000000000846e+00 3.222440000000000193e+00 2.917699999999999960e+00 8.299480000000000857e+00 5.238970000000000127e+00 -7.957699999999999774e-01 8.674440000000000595e+00 1.639580000000000037e+00 1.791609999999999925e+00 3.036699999999999955e-01 8.132759999999999323e+00 4.579209999999999781e+00 3.247099999999999986e-01 5.702630000000000088e+00 1.063439999999999941e+00 3.259900000000000020e-01 3.968799999999999883e+00 5.817599999999999660e+00 5.550999999999999684e-02 9.248129999999999740e+00 1.877070000000000016e+00 7.400059999999999860e+00 7.263230000000000075e+00 5.409209999999999852e+00 7.678309999999999746e+00 5.364799999999999791e+00 1.562999999999999945e+00 7.254850000000000243e+00 1.146195999999999948e+01 5.226259999999999906e+00 7.299830000000000041e+00 4.625099999999999767e+00 6.065500000000000114e+00 3.349549999999999805e+00 6.552480000000000082e+00 2.365019999999999900e+00 3.465679999999999872e+00 4.118649999999999700e+00 -5.719600000000000239e-01 3.683910000000000018e+00 2.171640000000000015e+00 2.900049999999999795e+00 3.494709999999999983e+00
2.028840000000000199e+00 1.448290000000000077e+00 3.130069999999999908e+00 -3.043699999999999739e-01 4.955669999999999575e+00 1.973260000000000014e+00 6.453750000000000320e+00 1.186520000000000019e+00 1.827709999999999946e+00 3.906280000000000197e+00 4.837860000000000049e+00 1.452879999999999949e+00 2.620080000000000187e+00 8.000899999999999679e-01 7.659849999999999604e+00 7.321900000000000075e-01 4.104479999999999684e+00 9.347720000000000695e+00 6.349300000000000388e+00 7.575499999999999456e-01 9.442740000000000578e+00 4.747760000000000424e+00 4.232380000000000031e+00 9.518399999999999750e+00 2.913149999999999906e+00 -1.211559999999999970e+00 1.110535999999999923e+01 -2.165340000000000042e+00 3.591629999999999878e+00 1.111000000000000008e-02 -1.224599999999999994e-01 6.786539999999999573e+00 2.821999999999999856e-02 4.775459999999999816e+00 2.103359999999999896e+00 1.101445999999999970e+01 4.743380000000000152e+00 -7.577300000000000146e-01 8.015309999999999491e+00 2.649389999999999912e+00 3.475800000000000001e+00 7.661999999999999922e+00 8.528840000000000643e+00 -1.514999999999999958e-01 8.044589999999999463e+00 6.680410000000000181e+00 3.110100000000000087e+00 7.996069999999999567e+00 -1.922800000000000065e-01 2.686659999999999826e+00 3.399239999999999817e+00 -2.311030000000000140e+00 5.770699999999999719e+00 3.320409999999999862e+00 4.432470000000000354e+00 2.707139999999999880e+00 3.169570000000000221e+00 2.052309999999999857e+00 5.681540000000000035e+00 3.104350000000000165e+00
7.995900000000000230e-01 8.029100000000000126e-01 1.130730000000000013e+00 6.901290000000000369e+00 3.975220000000000198e+00 2.357930000000000081e+00 5.255989999999999718e+00 9.426299999999999679e-01 1.814880000000000049e+00 2.624150000000000205e+00 4.456229999999999691e+00 3.141169999999999796e+00 3.456770000000000120e+00 5.887120000000000353e+00 8.389219999999999899e+00 5.649969999999999715e+00 2.535940000000000083e+00 8.403950000000000031e+00 7.773030000000000328e+00 5.655689999999999884e+00 8.194530000000000314e+00 1.003673000000000037e+01 2.292440000000000033e+00 8.075860000000000483e+00 -1.455149999999999944e+00 6.748739999999999739e+00 5.566799999999999526e-01 4.968960000000000043e+00 3.454639999999999933e+00 1.063000000000000056e-01 2.910600000000000076e+00 6.634970000000000034e+00 2.554699999999999749e-01 7.935900000000000176e-01 3.347309999999999786e+00 4.500299999999999856e-01 5.654609999999999914e+00 4.719229999999999592e+00 6.929450000000000109e+00 3.265800000000000036e+00 8.342520000000000380e+00 7.147319999999999673e+00 1.495509999999999895e+00 4.911489999999999689e+00 6.958899999999999864e+00 -6.624799999999999578e-01 8.284919999999999618e+00 7.227570000000000050e+00 7.247930000000000206e+00 1.382100000000000106e+00 3.035429999999999851e+00 4.955739999999999590e+00 5.744640000000000413e+00 3.027359999999999829e+00 2.981100000000000083e+00 1.738269999999999982e+00 2.998829999999999885e+00 1.534000000000000086e-01 5.077219999999999622e+00 3.518959999999999866e+00
2.116659999999999986e+00 1.845529999999999893e+00 1.827579999999999982e+00 -1.242700000000000055e-01 5.517710000000000115e+00 1.589210000000000012e+00 -1.870290000000000008e+00 2.193620000000000125e+00 2.604379999999999917e+00 3.961190000000000211e+00 5.485879999999999868e+00 2.450649999999999995e+00 5.702849999999999753e+00 -1.420250000000000012e+00 9.705709999999999837e+00 -4.110739999999999839e+00 2.665090000000000181e+00 9.943749999999999645e+00 1.816789999999999905e+00 -1.190790000000000015e+00 9.527139999999999276e+00 -3.217999999999999750e-01 2.217290000000000205e+00 9.705260000000000886e+00 -4.382199999999999984e-01 1.027730000000000032e+00 2.923799999999999732e-01 -2.444609999999999950e+00 4.436469999999999914e+00 3.352499999999999925e-01 3.675060000000000215e+00 3.934099999999999819e-01 2.285999999999999976e-01 1.859229999999999938e+00 4.401130000000000209e+00 4.457200000000000051e-01 -4.573769999999999669e+00 4.896779999999999688e+00 8.594689999999999941e+00 -2.363980000000000192e+00 9.275299999999999656e-01 8.445850000000000080e+00 -2.446599999999999886e-01 4.386350000000000193e+00 8.346909999999999386e+00 2.081230000000000135e+00 1.109580000000000011e+00 8.564289999999999736e+00 2.481399999999999995e-01 3.218919999999999781e+00 3.268380000000000063e+00 2.269769999999999843e+00 -3.513000000000000012e-01 3.499439999999999884e+00 4.116329999999999600e+00 3.074930000000000163e+00 3.466149999999999842e+00 6.359350000000000058e+00 -3.397100000000000120e-01 3.777060000000000084e+00
1.830310000000000104e+00 2.101220000000000088e+00 1.825290000000000079e+00 3.046200000000000019e-01 5.858220000000000205e+00 1.999440000000000106e+00 6.132360000000000255e+00 2.771669999999999856e+00 2.257270000000000110e+00 4.219159999999999577e+00 5.889029999999999987e+00 2.112589999999999968e+00 3.825499999999999901e+00 2.889200000000000101e-01 2.235371999999999915e+01 1.731049999999999978e+00 3.993450000000000166e+00 2.220052000000000092e+01 7.938390000000000057e+00 7.183899999999999730e-01 2.239882000000000062e+01 5.879679999999999573e+00 4.168300000000000338e+00 2.215391999999999939e+01 1.476800000000000057e-01 7.089900000000000091e-01 4.431800000000000184e-01 -1.823159999999999892e+00 4.984009999999999607e+00 4.045699999999999852e-01 4.471470000000000056e+00 1.125490000000000101e+00 4.067299999999999804e-01 2.253280000000000172e+00 4.547579999999999956e+00 1.770799999999999874e-01 1.980509999999999993e+00 6.519720000000000404e+00 2.116852000000000089e+01 3.724959999999999827e+00 2.769559999999999800e+00 2.124182000000000059e+01 5.918980000000000352e+00 6.423790000000000333e+00 2.104062000000000054e+01 8.125590000000000757e+00 2.906880000000000130e+00 2.108411999999999864e+01 3.328099999999999947e-01 3.695380000000000109e+00 3.357310000000000016e+00 -2.063070000000000181e+00 7.051219999999999821e+00 3.278519999999999879e+00 4.034639999999999560e+00 3.506930000000000103e+00 3.574980000000000047e+00 6.393679999999999808e+00 1.364799999999999902e-01 3.280209999999999848e+00
1.855129999999999946e+00 2.206440000000000179e+00 2.544439999999999813e+00 2.087900000000000034e-01 5.918429999999999858e+00 2.866569999999999840e+00 6.240709999999999980e+00 2.390169999999999906e+00 2.595740000000000158e+00 4.608780000000000321e+00 5.049229999999999663e+00 6.726699999999999902e-01 -1.824100000000000055e+00 6.543600000000000527e-01 8.996029999999999305e+00 -3.733579999999999899e+00 4.417659999999999698e+00 8.610039999999999694e+00 2.643860000000000099e+00 9.735700000000000465e-01 9.325350000000000250e+00 2.221499999999999864e-01 4.345110000000000028e+00 8.475419999999999732e+00 7.941139999999999866e+00 6.188599999999999657e-01 1.934800000000000131e-01 -3.539219999999999811e+00 4.321209999999999773e+00 1.125576000000000043e+01 4.357029999999999959e+00 9.341599999999999904e-01 6.173600000000000199e-01 3.974199999999999955e-01 3.920570000000000110e+00 1.117126000000000019e+01 4.671000000000000152e-01 -9.135000000000000064e-02 7.973729999999999762e+00 -1.698639999999999928e+00 3.249099999999999877e+00 7.373700000000000365e+00 4.960399999999999809e-01 6.883530000000000371e+00 7.760869999999999713e+00 2.804499999999999993e+00 3.038499999999999979e+00 7.843619999999999592e+00 1.722999999999999879e-02 3.536669999999999980e+00 3.897909999999999986e+00 -2.137249999999999872e+00 6.814569999999999794e+00 3.745709999999999873e+00 3.939630000000000187e+00 3.709589999999999943e+00 3.195850000000000080e+00 6.337530000000000108e+00 1.034800000000000025e-01 3.996290000000000120e+00