-1.946340000000000015e-01 1.230383000000000004e+00 9.815580000000000416e-01 -4.721999999999999635e-03 -2.095410000000000050e-01 -6.346309999999999452e-01 -9.835580000000000434e-01 4.687299999999999800e-01 -6.640350000000000419e-01 4.501169999999999893e-01 -7.275199999999999723e-02 -4.152899999999999925e-01 -3.834650000000000003e-01 2.212929999999999897e-01 -3.646610000000000129e-01 8.505700000000000482e-01 3.022039999999999726e-01 -6.914399999999999713e-02 1.201305000000000067e+00 6.880110000000000392e-01 -7.164099999999999635e-02 4.954069999999999863e-01 3.837160000000000015e-01 -7.803200000000000414e-02 1.514310000000000045e+00 -9.596299999999999830e-01 -1.361364000000000019e+00 8.036600000000000688e-02 -5.039430000000000298e-01 1.170358999999999927e+00 -1.428501999999999938e+00 -9.114339999999999664e-01 -1.051914999999999933e+00 1.333380000000000121e-01 3.965770000000000128e-01 -3.336709999999999954e-01 -8.463600000000000012e-01 -4.708430000000000115e-01 1.531689999999999996e-01 1.475730000000000097e-01 -3.127530000000000032e-01 8.968500000000000083e-02 4.651700000000000279e-02 -4.942059999999999786e-01 3.640590000000000215e-01 -1.210647999999999946e+00 -2.562719999999999998e-01 -6.513400000000000301e-01 4.557359999999999745e-01 7.058370000000000477e-01 9.766500000000000181e-01 -9.363820000000000476e-01 -1.166325000000000056e+00 1.191187999999999914e+00 -5.099200000000000260e-02 3.004890000000000061e-01 8.044750000000000512e-01 6.640249999999999764e-01 6.604590000000000183e-01 -3.542000000000000010e-02
-8.255999999999999450e-03 -7.542300000000000393e-02 -2.393800000000000094e-01 2.462769999999999959e-01 2.056999999999999940e-01 -3.929380000000000095e-01 -5.866519999999999513e-01 -3.497540000000000093e-01 -9.384430000000000271e-01 1.341329999999999911e+00 2.500029999999999752e-01 -6.905470000000000219e-01 1.976219999999999921e-01 -1.796202999999999994e+00 2.494929999999999926e-01 -3.919099999999999667e-02 5.189799999999999969e-02 -8.791360000000000285e-01 -5.253919999999999702e-01 -2.053999999999999836e-03 -5.963680000000000092e-01 -1.790680000000000049e-01 -3.592119999999999758e-01 1.107779000000000069e+00 8.922200000000000131e-01 -2.175620000000000054e-01 -1.465721000000000052e+00 1.113880000000000009e-01 2.141790000000000083e-01 3.999400000000000177e-01 5.339850000000000430e-01 -2.124790000000000012e-01 8.026889999999999858e-01 -9.369999999999999857e-03 7.293199999999999683e-02 8.079370000000000163e-01 -4.244069999999999787e-01 5.929999999999999855e-02 7.671139999999999626e-01 -1.155439999999999939e-01 8.218220000000000525e-01 -1.839210000000000012e-01 5.749200000000000144e-02 1.317779000000000034e+00 -4.393899999999999889e-02 3.368689999999999740e-01 -3.940119999999999734e-01 7.952199999999999547e-02 1.108818999999999999e+00 2.798800000000000177e-01 2.528409999999999824e-01 -1.013403000000000054e+00 4.310470000000000135e-01 -1.655830000000000080e-01 -1.376650000000000096e-01 -2.645239999999999814e-01 -4.427730000000000277e-01 -1.787053000000000003e+00 -3.331800000000000039e-02 1.571433999999999997e+00
6.064599999999999852e-02 8.728850000000000220e-01 5.979370000000000518e-01 1.470441000000000109e+00 -1.909599999999999839e-02 1.545466999999999924e+00 -2.191259999999999875e-01 1.019986999999999977e+00 5.271949999999999692e-01 -8.831160000000000121e-01 -1.014610999999999930e+00 -4.718399999999999678e-02 4.433880000000000043e-01 -2.953620000000000134e-01 -6.143760000000000332e-01 1.996560000000000001e-01 -5.532599999999999740e-01 -4.777799999999999825e-01 -8.832839999999999581e-01 6.925519999999999454e-01 -4.223089999999999899e-01 -8.977999999999999869e-03 -1.214013999999999927e+00 6.837100000000000122e-02 2.077940000000000065e-01 -5.635520000000000529e-01 1.394686000000000092e+00 -6.865130000000000399e-01 2.410200000000000120e-01 -7.268449999999999633e-01 -3.873789999999999734e-01 4.274359999999999826e-01 3.733670000000000044e-01 2.573619999999999797e-01 4.224390000000000089e-01 -1.022791000000000006e+00 3.406420000000000003e-01 -1.340760000000000007e-01 5.750650000000000484e-01 4.902569999999999983e-01 3.803810000000000247e-01 -4.447269999999999834e-01 1.222779999999999978e-01 8.949449999999999905e-01 -4.000699999999999812e-01 -9.178790000000000004e-01 3.127050000000000107e-01 8.595319999999999627e-01 -2.761140000000000261e-01 3.373000000000000304e-02 -9.189009999999999678e-01 8.681360000000000188e-01 -3.593509999999999760e-01 -3.827599999999999891e-01 8.865960000000000507e-01 -6.512620000000000076e-01 -5.811669999999999892e-01 -1.084807000000000077e+00 -4.934959999999999902e-01 9.728900000000000048e-02
3.977450000000000152e-01 1.262880000000000114e-01 5.765639999999999654e-01 2.169310000000000127e-01 1.046443999999999930e+00 -5.488680000000000225e-01 9.419469999999999787e-01 4.653649999999999731e-01 -1.406139999999999890e-01 5.799659999999999815e-01 -6.170400000000000329e-01 -3.141820000000000168e-01 -1.077549000000000090e+00 3.078600000000000086e-02 8.595329999999999915e-01 -8.538099999999999856e-02 2.340599999999999903e-01 1.525749999999999940e+00 5.589450000000000252e-01 2.276249999999999940e-01 1.560233999999999899e+00 2.639070000000000027e-01 -1.847910000000000108e-01 6.706490000000000506e-01 4.166880000000000028e-01 2.739570000000000061e-01 -5.545639999999999459e-01 -1.424501999999999935e+00 -1.791501999999999928e+00 -1.255571999999999910e+00 -1.829040000000000110e-01 -5.091040000000000010e-01 7.283180000000000209e-01 1.113510999999999918e+00 5.122039999999999926e-01 9.762300000000000144e-02 -5.828999999999999737e-01 -1.257042999999999910e+00 -1.583444999999999991e+00 8.709559999999999524e-01 1.657909999999999939e-01 -1.080111999999999961e+00 1.011038000000000103e+00 3.860020000000000118e-01 -4.417460000000000275e-01 -1.566456000000000071e+00 4.557450000000000112e-01 -8.507219999999999782e-01 -1.061172000000000004e+00 2.856330000000000258e-01 4.128510000000000235e-01 -8.089549999999999796e-01 4.881300000000000083e-01 -5.727000000000000146e-02 -4.232589999999999963e-01 -5.463599999999999707e-02 -4.644409999999999927e-01 8.414469999999999450e-01 -2.839149999999999729e-01 8.600139999999999452e-01
3.828670000000000129e-01 -5.577239999999999975e-01 2.598880000000000079e-01 -7.070830000000000171e-01 6.485189999999999566e-01 -2.417819999999999969e-01 -1.036475999999999953e+00 5.436269999999999714e-01 9.378999999999999559e-01 1.199309999999999959e-01 -7.607930000000000526e-01 9.726860000000000506e-01 1.354279999999999928e-01 -8.698500000000000121e-01 -1.167982999999999993e+00 -3.416359999999999952e-01 4.765209999999999724e-01 -1.168739999999999890e+00 -1.761199999999999918e-02 1.043179000000000078e+00 7.445720000000000116e-01 -7.128719999999999501e-01 3.771129999999999760e-01 5.287889999999999535e-01 9.216239999999999988e-01 -4.173560000000000048e-01 3.606360000000000121e-01 -2.582099999999999951e-01 6.079179999999999584e-01 5.547590000000000021e-01 -6.960480000000000000e-01 -6.461100000000000176e-02 -2.452229999999999965e-01 4.652359999999999829e-01 -3.329460000000000197e-01 -6.486720000000000264e-01 -1.162117999999999984e+00 -4.011350000000000193e-01 5.475670000000000259e-01 3.847039999999999904e-01 2.638710000000000222e-01 -4.158450000000000202e-01 1.140791000000000111e+00 -5.576619999999999910e-01 -1.739189999999999903e-01 4.932460000000000178e-01 -3.788889999999999758e-01 3.295170000000000043e-01 -2.087350000000000039e-01 -1.008456000000000019e+00 3.333539999999999837e-01 -4.482400000000000273e-01 3.317660000000000053e-01 -8.373939999999999717e-01 -2.198789999999999911e-01 8.906129999999999880e-01 -2.296640000000000070e-01 1.765082999999999958e+00 1.662970000000000004e-01 -4.404469999999999774e-01
-2.810750000000000193e-01 -7.122150000000000425e-01 1.119086000000000025e+00 -3.739489999999999759e-01 1.526309999999999889e-01 3.763349999999999751e-01 -1.120090000000000030e+00 -1.060510000000000064e+00 2.531600000000000170e-02 -9.088300000000000267e-01 8.766000000000000458e-01 1.030818999999999930e+00 -3.737340000000000106e-01 5.462510000000000421e-01 -7.527530000000000054e-01 -1.598690000000000111e-01 -3.086709999999999732e-01 7.318500000000000005e-02 -4.204359999999999764e-01 3.101639999999999953e-01 -2.022300000000000139e-02 4.012009999999999743e-01 -6.845500000000000196e-02 -1.867699999999999916e-02 -3.950110000000000010e-01 -1.676970000000000127e-01 1.179961999999999955e+00 9.365489999999999648e-01 9.226099999999999579e-02 -6.838039999999999674e-01 6.715849999999999875e-01 -5.745609999999999884e-01 -2.126989999999999992e-01 8.698540000000000161e-01 4.280939999999999745e-01 -6.244410000000000238e-01 1.103355000000000086e+00 -6.906700000000000339e-02 -4.344609999999999861e-01 -1.456590000000000107e-01 -4.445729999999999960e-01 -1.575360000000000094e-01 -2.430999999999999828e-02 -8.630000000000000518e-04 -3.388289999999999913e-01 -6.952409999999999979e-01 -2.105809999999999904e-01 4.867170000000000107e-01 1.059133000000000102e+00 1.028543999999999903e+00 6.434069999999999512e-01 7.276970000000000383e-01 3.080579999999999985e-01 -4.624380000000000157e-01 -2.443790000000000129e-01 -1.246629999999999960e-01 -4.234720000000000151e-01 -6.267920000000000158e-01 -7.470000000000000511e-04 -8.054940000000000433e-01
-3.741940000000000266e-01 -4.678599999999999981e-01 -4.485999999999999988e-01 -2.659710000000000130e-01 -1.019599999999999951e-01 3.050629999999999731e-01 6.132760000000000433e-01 -2.117840999999999863e+00 -1.440110000000000001e+00 2.929919999999999747e-01 8.158379999999999521e-01 -2.644239999999999924e-01 1.157694000000000001e+00 -1.423159999999999981e-01 -1.299819999999999864e-01 -1.853930000000000022e-01 -8.753060000000000285e-01 -3.154859999999999887e-01 -7.849200000000000621e-02 3.451810000000000156e-01 -1.885060000000000069e-01 -2.249529999999999863e-01 -8.317520000000000469e-01 -3.306230000000000002e-01 -3.172289999999999832e-01 -5.703420000000000156e-01 -3.247760000000000091e-01 -5.787799999999999889e-02 1.091990000000000044e-01 5.858130000000000281e-01 -1.093039999999999984e-01 3.630200000000000093e-02 7.090760000000000396e-01 8.408000000000000543e-03 1.616049999999999986e-01 -1.838579999999999937e-01 -4.070280000000000009e-01 5.378650000000000375e-01 5.633699999999999819e-02 6.066629999999999523e-01 5.855609999999999982e-01 4.058289999999999953e-01 -1.015889999999999987e-01 -6.106329999999999814e-01 4.904029999999999778e-01 -9.009399999999999353e-02 1.377008999999999928e+00 2.181470000000000076e-01 1.589129999999999987e-01 1.277667000000000108e+00 8.200979999999999936e-01 3.002989999999999826e-01 -8.933360000000000190e-01 2.227349999999999886e-01 -1.127958000000000016e+00 1.092416999999999971e+00 4.872299999999999964e-01 2.018369999999999886e-01 2.727020000000000000e-01 -6.743649999999999922e-01
2.153249999999999886e-01 -6.601280000000000481e-01 6.725430000000000019e-01 -1.128765000000000018e+00 -3.507779999999999787e-01 -7.607969999999999455e-01 7.418399999999999994e-02 -4.156960000000000099e-01 2.471599999999999839e-02 8.215489999999999737e-01 -1.588720000000000132e-01 6.174539999999999473e-01 2.661060000000000092e-01 -7.082760000000000167e-01 -9.021919999999999940e-01 -2.376040000000000096e-01 5.412259999999999849e-01 1.123234999999999983e+00 -1.080549999999999983e-01 1.146876999999999924e+00 3.825399999999999912e-01 5.176539999999999475e-01 3.638109999999999955e-01 -1.606368000000000018e+00 5.928800000000000042e-02 4.842049999999999965e-01 1.646379000000000037e+00 -3.695289999999999964e-01 2.704099999999999837e-01 -5.823720000000000008e-01 2.272000000000000061e-02 6.257300000000000362e-02 3.943059999999999898e-01 -3.756820000000000159e-01 3.159879999999999911e-01 6.547720000000000207e-01 -7.926100000000000367e-01 -2.645589999999999886e-01 1.822280000000000011e-01 5.755099999999999660e-01 1.629339999999999955e-01 -1.141110000000000041e-01 4.431999999999999829e-01 -5.568119999999999736e-01 -1.634649999999999992e-01 -5.302839999999999776e-01 -6.968499999999999694e-01 -1.232660000000000006e-01 -2.418379999999999974e-01 -7.832970000000000210e-01 -5.464499999999999913e-02 -7.609010000000000495e-01 4.761440000000000117e-01 -3.333269999999999844e-01 -1.472999999999999917e-03 5.475900000000000212e-01 -6.455140000000000322e-01 1.551206000000000085e+00 2.235099999999999865e-01 -4.121139999999999803e-01
5.410070000000000157e-01 -8.728099999999999747e-01 4.817799999999999860e-02 -4.128099999999999825e-02 1.660860000000000114e-01 -1.699650000000000050e-01 -1.055554000000000103e+00 2.891040000000000276e-01 6.946860000000000257e-01 4.625839999999999952e-01 3.184629999999999961e-01 1.249890000000000029e-01 4.653800000000000298e-02 -3.604000000000000259e-02 -1.100559999999999983e+00 1.048748999999999931e+00 3.163830000000000253e-01 9.279119999999999591e-01 7.176289999999999614e-01 1.022393000000000107e+00 2.281759999999999899e-01 1.645560000000000078e-01 -2.749300000000000008e-02 -1.336843000000000004e+00 1.003025999999999973e+00 -1.059973999999999972e+00 -8.767300000000000093e-02 -3.475349999999999828e-01 9.717989999999999684e-01 -7.594710000000000072e-01 -5.397140000000000271e-01 2.678999999999999958e-03 3.290839999999999876e-01 -6.014300000000000201e-02 -3.079859999999999820e-01 2.810119999999999840e-01 -1.102294000000000107e+00 -2.528199999999999892e-01 2.087450000000000139e-01 1.044579999999999953e-01 -3.153880000000000017e-01 7.483700000000000074e-02 5.780189999999999495e-01 -2.140120000000000078e-01 5.761100000000000110e-01 -1.251706999999999903e+00 -6.434800000000000519e-01 -1.844739999999999991e-01 -7.754919999999999591e-01 2.088280000000000136e-01 6.301719999999999544e-01 -2.450140000000000096e-01 4.715570000000000039e-01 -8.432760000000000256e-01 3.254150000000000098e-01 -1.429799999999999995e-02 7.278750000000000497e-01 4.267520000000000202e-01 -2.299000000000000002e-02 -3.695149999999999824e-01
5.561100000000000071e-02 1.170347999999999944e+00 -4.196099999999999830e-02 3.586170000000000191e-01 -3.991379999999999928e-01 -9.435440000000000493e-01 -6.972420000000000284e-01 5.077799999999999675e-02 -6.025139999999999940e-01 -5.913209999999999855e-01 -2.968430000000000235e-01 5.000909999999999522e-01 -7.249700000000000033e-01 9.138000000000000289e-02 -7.386289999999999800e-01 5.144900000000000168e-02 -4.620159999999999823e-01 3.831080000000000041e-01 2.496649999999999980e-01 -1.696388000000000007e+00 8.274850000000000261e-01 -2.801420000000000021e-01 -1.983550000000000035e-01 -1.815160000000000107e-01 -9.590899999999999426e-02 1.896009999999999918e-01 1.823093000000000075e+00 1.211163999999999907e+00 -6.102919999999999456e-01 -6.852859999999999507e-01 3.389079999999999870e-01 -1.494910000000000128e-01 -1.217116000000000087e+00 4.358200000000000268e-02 -2.283270000000000022e-01 1.420682000000000000e+00 5.588680000000000314e-01 8.716490000000000071e-01 -3.388090000000000268e-01 4.229000000000000120e-02 -1.840070000000000039e-01 1.292389999999999928e-01 8.578099999999999614e-02 7.867960000000000509e-01 -1.779229999999999978e-01 9.022600000000000064e-02 7.107210000000000472e-01 -3.948479999999999768e-01 8.272659999999999458e-01 3.581130000000000146e-01 6.860199999999999632e-02 -9.155510000000000037e-01 -6.247639999999999860e-01 6.728129999999999944e-01 -3.226390000000000091e-01 5.010010000000000296e-01 -6.748600000000000154e-01 -2.856549999999999923e-01 1.192369999999999958e-01 1.718929999999999902e-01
1.019422000000000050e+00 -1.838120000000000032e-01 -2.297170000000000045e-01 -1.366923000000000110e+00 6.249770000000000048e-01 -6.021599999999999869e-02 1.784569000000000072e+00 1.484763999999999973e+00 1.395208000000000004e+00 -5.376640000000000308e-01 -3.752750000000000252e-01 -2.619499999999999953e-02 -6.944300000000000472e-02 8.232260000000000133e-01 1.540786999999999907e+00 2.768169999999999797e-01 -1.010102999999999973e+00 1.076065999999999967e+00 6.497429999999999595e-01 5.953220000000000178e-01 -8.953309999999999880e-01 1.382029999999999925e-01 -2.566459999999999853e-01 -6.795900000000000551e-02 -1.640179999999999971e-01 8.535359999999999614e-01 -2.073099999999999943e-01 4.226360000000000117e-01 -5.747459999999999791e-01 -2.653610000000000135e-01 -1.757549999999999946e+00 -9.848329999999999584e-01 -1.415405999999999942e+00 1.075944999999999929e+00 -5.102430000000000021e-01 -6.102100000000000302e-01 7.122020000000000017e-01 5.659429999999999739e-01 -1.337124999999999897e+00 3.537859999999999894e-01 -3.485360000000000125e-01 -7.415599999999999969e-02 -9.132940000000000502e-01 5.444449999999999568e-01 -2.173650000000000027e-01 -9.906530000000000058e-01 -1.068916999999999895e+00 4.455830000000000068e-01 -7.874229999999999841e-01 -2.403599999999999903e-01 8.164670000000000538e-01 -1.868640000000000023e-01 5.648619999999999752e-01 9.704859999999999598e-01 -4.227920000000000011e-01 -1.235050000000000037e-01 -1.149950000000000028e+00 7.632989999999999498e-01 -3.800979999999999914e-01 3.117030000000000078e-01
1.669509999999999883e-01 4.719550000000000134e-01 -1.082076000000000038e+00 4.021730000000000027e-01 -1.041550999999999894e+00 -3.676740000000000008e-01 -6.908490000000000464e-01 8.323840000000000128e-01 -1.026759999999999895e+00 -1.917449999999999988e-01 -5.715479999999999450e-01 -4.006480000000000041e-01 -2.933560000000000056e-01 5.393499999999999961e-01 8.058039999999999647e-01 -9.135910000000000419e-01 3.366069999999999895e-01 9.604350000000000387e-01 -1.252882999999999969e+00 1.693786999999999932e+00 1.456323999999999952e+00 9.209359999999999769e-01 -3.050209999999999866e-01 8.453530000000000211e-01 -7.578350000000000364e-01 1.158698999999999923e+00 -2.232139999999999791e+00 -5.395670000000000188e-01 -3.805729999999999946e-01 3.017859999999999987e-01 6.597950000000000204e-01 -2.246060000000000001e-01 3.976569999999999827e-01 -5.333280000000000243e-01 -3.559109999999999774e-01 1.279990000000000017e-01 1.912230000000000041e-01 -1.184639999999999915e+00 -4.084690000000000265e-01 -2.745529999999999915e-01 -1.333863000000000021e+00 -5.619110000000000493e-01 2.325674999999999937e+00 5.067599999999999882e-02 -1.399083999999999994e+00 -3.359230000000000271e-01 9.815000000000000807e-03 2.103589999999999904e-01 3.967829999999999968e-01 8.388750000000000373e-01 8.142080000000000428e-01 -5.161090000000000400e-01 -6.072239999999999860e-01 6.257310000000000372e-01 6.940770000000000550e-01 1.390201000000000020e+00 -4.724899999999999933e-02 5.421240000000000503e-01 -1.317411000000000110e+00 9.803539999999999477e-01
-1.366479999999999917e+00 -1.123976000000000086e+00 2.454280000000000073e-01 9.145999999999999963e-02 -6.080330000000000457e-01 -4.010270000000000223e-01 -1.386199999999999932e-01 -9.325059999999999460e-01 -1.352750000000000064e-01 -5.832749999999999879e-01 1.982780999999999905e+00 -1.943110000000000115e-01 -8.848589999999999511e-01 -3.931680000000000175e-01 -7.176890000000000214e-01 4.642839999999999745e-01 6.751310000000000366e-01 6.439259999999999984e-01 5.009099999999999664e-02 -6.132260000000000488e-01 1.955919999999999881e-01 -4.209240000000000204e-01 1.032507000000000064e+00 1.179116000000000053e+00 -6.401679999999999593e-01 5.192689999999999806e-01 -4.911599999999999855e-01 -3.712219999999999964e-01 9.237039999999999695e-01 -1.088308999999999971e+00 -2.989970000000000128e-01 4.125800000000000300e-02 -5.363409999999999567e-01 7.441959999999999686e-01 3.750740000000000185e-01 9.271460000000000257e-01 4.034610000000000141e-01 -4.004050000000000109e-01 2.032549999999999912e-01 -9.788400000000000434e-01 -5.095999999999999835e-03 -4.734079999999999955e-01 5.202879999999999727e-01 -1.167149999999999993e-01 4.371920000000000250e-01 1.332545000000000091e+00 -8.754830000000000112e-01 -3.749100000000000210e-01 1.092689999999999939e+00 7.903569999999999762e-01 -3.769299999999999734e-02 -2.421969999999999956e-01 7.156559999999999588e-01 -3.816740000000000133e-01 7.178299999999999681e-01 -1.768536000000000108e+00 1.037298000000000053e+00 5.087350000000000483e-01 -2.185910000000000075e-01 -3.715600000000000153e-02
-6.769650000000000389e-01 -1.506800000000000084e-01 3.446910000000000251e-01 3.750169999999999892e-01 4.540899999999999798e-02 -9.666510000000000380e-01 3.164000000000000146e-01 1.406697000000000086e+00 -7.391649999999999610e-01 -3.990099999999999758e-01 8.499759999999999538e-01 -3.498560000000000003e-01 7.021960000000000424e-01 2.066459999999999964e-01 -8.596300000000000052e-01 -5.794650000000000079e-01 4.910610000000000253e-01 -4.790139999999999953e-01 -3.536360000000000059e-01 -1.037751000000000090e+00 1.277883000000000102e+00 -1.034993999999999970e+00 4.165820000000000078e-01 8.894589999999999996e-01 5.088380000000000125e-01 -3.435300000000000159e-02 4.132149999999999990e-01 6.039170000000000371e-01 8.190699999999999370e-02 -1.770309999999999939e-01 8.693309999999999649e-01 3.255489999999999773e-01 -1.003832999999999975e+00 1.638699999999999879e-02 -1.468188000000000049e+00 -4.154379999999999740e-01 -7.075599999999999945e-02 -3.397470000000000212e-01 6.696649999999999547e-01 1.287139999999999951e-01 -8.450750000000000206e-01 -3.924389999999999823e-01 -3.665829999999999922e-01 2.629759999999999875e-01 5.856639999999999624e-01 9.747470000000000301e-01 9.678700000000000081e-01 -7.169039999999999857e-01 -3.504439999999999777e-01 -5.398150000000000448e-01 8.029950000000000143e-01 -1.356160000000000032e+00 1.478115000000000068e+00 1.477420000000000122e-01 1.788810000000000122e-01 -1.292572999999999972e+00 2.914769999999999861e-01 5.135859999999999870e-01 -8.246069999999999789e-01 6.771679999999999922e-01
9.721229999999999594e-01 1.004830000000000029e-01 -4.561020000000000074e-01 6.342459999999999765e-01 -2.327750000000000097e-01 -5.083450000000000468e-01 -4.439310000000000200e-01 -4.907139999999999835e-01 -1.575610000000000066e-01 1.542370000000000130e-01 -4.935350000000000015e-01 -4.221530000000000005e-01 4.033329999999999971e-01 7.693140000000000533e-01 8.127560000000000340e-01 -4.299649999999999861e-01 -1.348224000000000089e+00 5.346300000000000496e-01 5.803070000000000173e-01 8.125790000000000513e-01 -2.384159999999999890e-01 1.467700000000000116e-01 8.274939999999999518e-01 -6.351700000000000124e-01 -4.107149999999999967e-01 1.166080000000000033e-01 6.862899999999999556e-02 7.100199999999999567e-02 -5.664500000000000091e-02 7.842350000000000154e-01 1.434439999999999882e-01 3.664490000000000247e-01 -5.353480000000000461e-01 -2.353399999999999936e-01 -4.274540000000000006e-01 1.080991000000000035e+00 -1.291259999999999908e-01 1.617791999999999897e+00 -1.609472999999999931e+00 7.378019999999999579e-01 -6.315650000000000430e-01 -4.258460000000000023e-01 -3.327820000000000222e-01 -1.068330999999999920e+00 -2.052259999999999918e-01 -4.900299999999999795e-02 -7.500600000000000322e-02 5.424500000000000155e-02 7.227899999999999603e-02 -2.423710000000000031e-01 5.716510000000000202e-01 -5.190110000000000001e-01 7.522290000000000365e-01 8.211680000000000090e-01 -6.542719999999999647e-01 -8.786699999999999511e-01 5.654900000000000204e-02 -7.114000000000000323e-01 5.823409999999999975e-01 4.087850000000000095e-01
4.860940000000000261e-01 1.341779000000000055e+00 8.821090000000000320e-01 -1.302812999999999999e+00 -8.784480000000000066e-01 -1.610116000000000103e+00 -2.439712000000000103e+00 1.590419999999999889e-01 -1.655793999999999988e+00 6.142790000000000195e-01 -1.164498000000000033e+00 -6.063190000000000524e-01 2.365450000000000053e-01 4.378239999999999910e-01 -2.613130000000000175e-01 7.081960000000000477e-01 -7.680700000000000027e-02 5.715799999999999770e-01 4.854550000000000254e-01 5.204109999999999570e-01 -2.036939999999999862e-01 1.481560000000000099e-01 4.301119999999999943e-01 2.265109999999999901e-01 1.378482999999999903e+00 -9.384259999999999824e-01 -1.301754000000000078e+00 2.882179999999999742e-01 -5.831140000000000212e-01 1.075692000000000093e+00 -1.651974000000000053e+00 -9.999630000000000463e-01 -1.569263000000000075e+00 1.035900000000000015e-02 1.154639999999999972e-01 -3.381089999999999929e-01 -3.757739999999999969e-01 3.884150000000000102e-01 3.125629999999999797e-01 3.162789999999999768e-01 -1.982180000000000053e-01 5.451600000000000196e-02 -2.291999999999999871e-01 -8.264460000000000139e-01 7.915999999999999426e-02 -1.132668999999999926e+00 -4.557740000000000125e-01 -8.201810000000000489e-01 1.498591999999999924e+00 9.055119999999999836e-01 1.964636999999999967e+00 -2.535479999999999956e-01 -6.685740000000000016e-01 9.393789999999999640e-01 -2.483090000000000019e-01 9.441279999999999673e-01 1.110625999999999891e+00 1.463341999999999921e+00 1.547581000000000095e+00 1.149769000000000041e+00
-6.441390000000000171e-01 -5.035009999999999764e-01 1.953660000000000119e-01 -7.973930000000000184e-01 1.533619999999999983e-01 1.579039999999999999e+00 4.970859999999999723e-01 -2.160752000000000006e+00 -1.000661999999999940e+00 -1.966890000000000027e-01 1.272108999999999934e+00 2.409000000000000117e-03 3.140479999999999938e-01 4.447510000000000074e-01 1.488099999999999978e+00 -2.187360000000000138e-01 -8.599890000000000034e-01 3.283579999999999832e-01 1.213540000000000063e+00 -7.418360000000000509e-01 1.414495000000000058e+00 5.047460000000000280e-01 -9.820440000000000280e-01 6.343159999999999910e-01 1.718780000000000030e-01 -5.677900000000000308e-02 -2.435859999999999970e-01 4.089600000000000180e-02 1.113060000000000022e-01 -1.300850000000000062e-01 1.797159999999999869e-01 1.172935999999999979e+00 -1.522456999999999949e+00 7.608179999999999943e-01 1.424159999999999870e-01 -1.512839000000000045e+00 -3.832699999999999996e-01 -7.742599999999999483e-01 -7.147080000000000100e-01 1.821319999999999883e-01 7.634440000000000115e-01 5.049590000000000467e-01 -1.061733000000000038e+00 4.647729999999999917e-01 -3.576909999999999812e-01 -4.777959999999999985e-01 8.587850000000000206e-01 2.443000000000000033e-02 1.051034999999999942e+00 1.132134999999999891e+00 7.491280000000000161e-01 2.472840000000000038e-01 -3.450070000000000081e-01 -7.213519999999999932e-01 -1.355356000000000005e+00 2.074100000000000110e-01 4.331229999999999802e-01 -2.806700000000000167e-02 -2.992580000000000240e-01 -1.150344000000000033e+00
1.230404999999999971e+00 4.003419999999999757e-01 3.852169999999999761e-01 -4.246699999999999781e-02 1.113075999999999954e+00 -2.781440000000000023e-01 7.326759999999999939e-01 -3.212180000000000035e-01 -2.183889999999999998e-01 9.518000000000000071e-02 -5.479899999999999771e-01 5.499779999999999669e-01 -6.565999999999999615e-02 -1.421610000000000096e-01 1.782229999999999925e-01 1.075539999999999968e-01 1.023775000000000102e+00 1.797395999999999994e+00 4.510250000000000092e-01 -9.900320000000000231e-01 7.506230000000000402e-01 -2.139699999999999935e-02 -6.068270000000000053e-01 6.876550000000000162e-01 -8.264479999999999604e-01 4.433639999999999803e-01 -1.636098000000000052e+00 -6.509960000000000191e-01 -9.198150000000000492e-01 -6.715109999999999690e-01 -2.431220000000000048e-01 6.720099999999999685e-02 -1.970580000000000109e-01 5.647800000000000042e-02 -1.488619999999999943e-01 3.406219999999999803e-01 -6.554349999999999898e-01 -2.791599999999999984e-02 -1.419330000000000036e-01 9.639929999999999888e-01 -4.936729999999999730e-01 -6.036270000000000246e-01 2.852230000000000043e-01 1.160496999999999890e+00 2.533999999999999794e-03 -6.373370000000000424e-01 3.772510000000000030e-01 -6.773400000000000531e-01 -6.985789999999999500e-01 -8.292589999999999684e-01 3.221859999999999724e-01 3.773880000000000012e-01 4.747500000000000331e-02 9.636500000000000621e-02 -1.324299999999999922e-01 4.889990000000000170e-01 -6.268179999999999863e-01 -3.260520000000000085e-01 -9.422700000000000520e-02 -5.987900000000000167e-02
6.067399999999999460e-01 -1.161993000000000054e+00 -2.332160000000000066e-01 9.934999999999999387e-03 1.425947999999999993e+00 -4.172999999999999626e-03 -4.403389999999999804e-01 -8.522990000000000288e-01 1.935379999999999878e-01 -2.377733000000000096e+00 6.975280000000000369e-01 8.631170000000000231e-01 3.869890000000000274e-01 5.815940000000000554e-01 2.553949999999999831e-01 6.615990000000000482e-01 3.725499999999999923e-01 7.416160000000000529e-01 -1.730170000000000041e-01 -7.027079999999999993e-01 9.064229999999999787e-01 1.433437999999999990e+00 2.454429999999999945e-01 1.614482999999999890e+00 4.577350000000000030e-01 7.222299999999999554e-02 4.977610000000000090e-01 1.879936000000000051e+00 -6.105190000000000339e-01 -1.944700000000000040e-01 -7.763899999999999968e-02 -2.326399999999999996e-02 4.101779999999999871e-01 -1.957349999999999923e-01 -2.098099999999999965e-02 -5.959039999999999893e-01 8.975900000000000545e-02 -3.193700000000000011e-02 -3.853800000000000003e-01 -8.705479999999999885e-01 -1.050972000000000017e+00 -1.925560000000000049e-01 -3.210049999999999848e-01 -3.582480000000000109e-01 -5.945829999999999727e-01 -1.306721000000000021e+00 5.117019999999999902e-01 -1.011954000000000020e+00 -5.038979999999999571e-01 -4.608740000000000059e-01 -5.148559999999999803e-01 1.541250000000000120e-01 4.577350000000000030e-01 -7.784720000000000528e-01 7.660029999999999895e-01 7.662560000000000482e-01 -3.755479999999999929e-01 -1.796250000000000069e-01 1.428169999999999995e-01 -6.013960000000000417e-01