7.988770383000000308e+00 0.000000000000000000e+00 0.000000000000000000e+00 2.846960347000000002e+00 7.448474668000000243e+00 0.000000000000000000e+00 0.000000000000000000e+00 0.000000000000000000e+00 2.000000000000000000e+01
8.351406276000000517e+00 0.000000000000000000e+00 0.000000000000000000e+00 -4.054330132999999670e+00 7.022306278000000290e+00 0.000000000000000000e+00 0.000000000000000000e+00 0.000000000000000000e+00 2.000000000000000000e+01
8.223706182000000808e+00 0.000000000000000000e+00 0.000000000000000000e+00 2.702910372999999922e+00 7.097871111999999982e+00 0.000000000000000000e+00 0.000000000000000000e+00 0.000000000000000000e+00 2.000000000000000000e+01
7.541313173999999897e+00 0.000000000000000000e+00 0.000000000000000000e+00 3.936900282999999945e+00 1.076318099599999911e+01 0.000000000000000000e+00 0.000000000000000000e+00 0.000000000000000000e+00 2.000000000000000000e+01
7.330612039000000024e+00 0.000000000000000000e+00 0.000000000000000000e+00 2.588126288999999858e+00 6.728201150000000297e+00 0.000000000000000000e+00 0.000000000000000000e+00 0.000000000000000000e+00 2.000000000000000000e+01
8.541740597000000434e+00 0.000000000000000000e+00 0.000000000000000000e+00 -4.064824768000000255e+00 7.040483520000000439e+00 0.000000000000000000e+00 0.000000000000000000e+00 0.000000000000000000e+00 2.000000000000000000e+01
8.298036405999999587e+00 0.000000000000000000e+00 0.000000000000000000e+00 2.839871001000000117e+00 7.558775162999999964e+00 0.000000000000000000e+00 0.000000000000000000e+00 0.000000000000000000e+00 2.000000000000000000e+01
8.613385995999999878e+00 0.000000000000000000e+00 0.000000000000000000e+00 2.531764493999999921e+00 6.741521762999999723e+00 0.000000000000000000e+00 0.000000000000000000e+00 0.000000000000000000e+00 2.000000000000000000e+01
8.159197579000000644e+00 0.000000000000000000e+00 0.000000000000000000e+00 -4.024028218999999851e+00 6.969821818999999863e+00 0.000000000000000000e+00 0.000000000000000000e+00 0.000000000000000000e+00 2.000000000000000000e+01
8.128263106000000349e+00 0.000000000000000000e+00 0.000000000000000000e+00 3.291964793000000000e+00 8.674344535999999550e+00 0.000000000000000000e+00 0.000000000000000000e+00 0.000000000000000000e+00 2.000000000000000000e+01
8.162304389000000882e+00 0.000000000000000000e+00 0.000000000000000000e+00 -4.830604864999999748e+00 8.366853647999999311e+00 0.000000000000000000e+00 0.000000000000000000e+00 0.000000000000000000e+00 2.000000000000000000e+01
7.134193372000000366e+00 0.000000000000000000e+00 0.000000000000000000e+00 2.412780136999999936e+00 6.312533207999999618e+00 0.000000000000000000e+00 0.000000000000000000e+00 0.000000000000000000e+00 2.000000000000000000e+01
8.701724404000000135e+00 0.000000000000000000e+00 0.000000000000000000e+00 -3.508820588999999934e+00 6.077455964000000321e+00 0.000000000000000000e+00 0.000000000000000000e+00 0.000000000000000000e+00 2.000000000000000000e+01
8.277503726999999145e+00 0.000000000000000000e+00 0.000000000000000000e+00 2.614605227000000198e+00 6.889498518999999987e+00 0.000000000000000000e+00 0.000000000000000000e+00 0.000000000000000000e+00 2.000000000000000000e+01
8.187856315999999524e+00 0.000000000000000000e+00 0.000000000000000000e+00 -3.962907205000000044e+00 6.863957110000000306e+00 0.000000000000000000e+00 0.000000000000000000e+00 0.000000000000000000e+00 2.000000000000000000e+01
8.058785848999999502e+00 0.000000000000000000e+00 0.000000000000000000e+00 -4.044477746000000096e+00 7.005241441999999985e+00 0.000000000000000000e+00 0.000000000000000000e+00 0.000000000000000000e+00 2.000000000000000000e+01
8.023448096999999279e+00 0.000000000000000000e+00 0.000000000000000000e+00 -4.354825160999999945e+00 7.542778969999999639e+00 0.000000000000000000e+00 0.000000000000000000e+00 0.000000000000000000e+00 2.000000000000000000e+01
9.141269278999999415e+00 0.000000000000000000e+00 0.000000000000000000e+00 2.569460771000000143e+00 6.747431050000000319e+00 0.000000000000000000e+00 0.000000000000000000e+00 0.000000000000000000e+00 2.000000000000000000e+01
8.058041599999999249e+00 0.000000000000000000e+00 0.000000000000000000e+00 -3.981878942999999893e+00 6.896817127000000269e+00 0.000000000000000000e+00 0.000000000000000000e+00 0.000000000000000000e+00 2.000000000000000000e+01
7.353573955999999967e+00 0.000000000000000000e+00 0.000000000000000000e+00 2.442509535000000120e+00 6.349649756999999894e+00 0.000000000000000000e+00 0.000000000000000000e+00 0.000000000000000000e+00 2.000000000000000000e+01
7.444486920000000119e+00 0.000000000000000000e+00 0.000000000000000000e+00 2.584859204999999882e+00 6.882901086999999585e+00 0.000000000000000000e+00 0.000000000000000000e+00 0.000000000000000000e+00 2.000000000000000000e+01
8.784915265000000417e+00 0.000000000000000000e+00 0.000000000000000000e+00 3.484170417000000075e+00 9.525452543000000105e+00 0.000000000000000000e+00 0.000000000000000000e+00 0.000000000000000000e+00 2.000000000000000000e+01
9.159974058999999613e+00 0.000000000000000000e+00 0.000000000000000000e+00 -4.052373691999999750e+00 7.018917623000000106e+00 0.000000000000000000e+00 0.000000000000000000e+00 0.000000000000000000e+00 2.000000000000000000e+01
8.665757954000000041e+00 0.000000000000000000e+00 0.000000000000000000e+00 -3.965268362999999852e+00 6.868046757000000113e+00 0.000000000000000000e+00 0.000000000000000000e+00 0.000000000000000000e+00 2.000000000000000000e+01
9.540478485999999592e+00 0.000000000000000000e+00 0.000000000000000000e+00 -3.859653912999999825e+00 6.685117149999999953e+00 0.000000000000000000e+00 0.000000000000000000e+00 0.000000000000000000e+00 2.000000000000000000e+01
8.179648044000000340e+00 0.000000000000000000e+00 0.000000000000000000e+00 -4.239290867000000240e+00 7.342667687999999693e+00 0.000000000000000000e+00 0.000000000000000000e+00 0.000000000000000000e+00 2.000000000000000000e+01
8.072805735999999399e+00 0.000000000000000000e+00 0.000000000000000000e+00 -4.121247463000000444e+00 7.138210500999999653e+00 0.000000000000000000e+00 0.000000000000000000e+00 0.000000000000000000e+00 2.000000000000000000e+01
8.700285735999999659e+00 0.000000000000000000e+00 0.000000000000000000e+00 -3.956997174000000062e+00 6.853720634000000089e+00 0.000000000000000000e+00 0.000000000000000000e+00 0.000000000000000000e+00 2.000000000000000000e+01
8.326408115999999637e+00 0.000000000000000000e+00 0.000000000000000000e+00 -4.157306443999999601e+00 7.200666491999999863e+00 0.000000000000000000e+00 0.000000000000000000e+00 0.000000000000000000e+00 2.000000000000000000e+01
8.930914914000000593e+00 0.000000000000000000e+00 0.000000000000000000e+00 2.540813862999999895e+00 6.695057886999999930e+00 0.000000000000000000e+00 0.000000000000000000e+00 0.000000000000000000e+00 2.000000000000000000e+01
8.728942118999999167e+00 0.000000000000000000e+00 0.000000000000000000e+00 -4.168369074000000118e+00 7.219827530999999965e+00 0.000000000000000000e+00 0.000000000000000000e+00 0.000000000000000000e+00 2.000000000000000000e+01
7.502518070999999900e+00 0.000000000000000000e+00 0.000000000000000000e+00 2.350643829000000018e+00 6.149966588999999928e+00 0.000000000000000000e+00 0.000000000000000000e+00 0.000000000000000000e+00 2.000000000000000000e+01
9.461625903999999920e+00 0.000000000000000000e+00 0.000000000000000000e+00 3.349656223000000210e+00 9.157701137000000102e+00 0.000000000000000000e+00 0.000000000000000000e+00 0.000000000000000000e+00 2.000000000000000000e+01
9.159909008999999713e+00 0.000000000000000000e+00 0.000000000000000000e+00 -3.951303623999999903e+00 6.843859115999999965e+00 0.000000000000000000e+00 0.000000000000000000e+00 0.000000000000000000e+00 2.000000000000000000e+01
8.069284095000000434e+00 0.000000000000000000e+00 0.000000000000000000e+00 -4.184865009000000136e+00 7.248399330999999890e+00 0.000000000000000000e+00 0.000000000000000000e+00 0.000000000000000000e+00 2.000000000000000000e+01
9.366371581999999307e+00 0.000000000000000000e+00 0.000000000000000000e+00 3.655751523999999808e+00 9.994542022999999276e+00 0.000000000000000000e+00 0.000000000000000000e+00 0.000000000000000000e+00 2.000000000000000000e+01
8.140646323000000351e+00 0.000000000000000000e+00 0.000000000000000000e+00 -4.544704641000000045e+00 7.871659898999999960e+00 0.000000000000000000e+00 0.000000000000000000e+00 0.000000000000000000e+00 2.000000000000000000e+01
1.029065272000000064e+01 0.000000000000000000e+00 0.000000000000000000e+00 3.469632589999999794e+00 9.485707248000000646e+00 0.000000000000000000e+00 0.000000000000000000e+00 0.000000000000000000e+00 2.000000000000000000e+01
8.163142419999999788e+00 0.000000000000000000e+00 0.000000000000000000e+00 2.770664657999999836e+00 7.300715940999999987e+00 0.000000000000000000e+00 0.000000000000000000e+00 0.000000000000000000e+00 2.000000000000000000e+01
7.528705662000000132e+00 0.000000000000000000e+00 0.000000000000000000e+00 3.552300509000000162e+00 9.711714948999999208e+00 0.000000000000000000e+00 0.000000000000000000e+00 0.000000000000000000e+00 2.000000000000000000e+01
7.750669462000000287e+00 0.000000000000000000e+00 0.000000000000000000e+00 2.765298136000000184e+00 7.545368288999999784e+00 0.000000000000000000e+00 0.000000000000000000e+00 0.000000000000000000e+00 2.000000000000000000e+01
9.453610756999999865e+00 0.000000000000000000e+00 0.000000000000000000e+00 -4.221172906999999697e+00 7.311286457999999655e+00 0.000000000000000000e+00 0.000000000000000000e+00 0.000000000000000000e+00 2.000000000000000000e+01
8.494929731999999234e+00 0.000000000000000000e+00 0.000000000000000000e+00 -4.223797814000000095e+00 7.315832932000000177e+00 0.000000000000000000e+00 0.000000000000000000e+00 0.000000000000000000e+00 2.000000000000000000e+01
7.585018158999999649e+00 0.000000000000000000e+00 0.000000000000000000e+00 2.987566380000000077e+00 7.792174905000000429e+00 0.000000000000000000e+00 0.000000000000000000e+00 0.000000000000000000e+00 2.000000000000000000e+01
7.951561040999999719e+00 0.000000000000000000e+00 0.000000000000000000e+00 2.677510911000000160e+00 7.031171856000000275e+00 0.000000000000000000e+00 0.000000000000000000e+00 0.000000000000000000e+00 2.000000000000000000e+01
8.088101032999999163e+00 0.000000000000000000e+00 0.000000000000000000e+00 -4.054442370000000295e+00 7.022500677000000024e+00 0.000000000000000000e+00 0.000000000000000000e+00 0.000000000000000000e+00 2.000000000000000000e+01
7.880315486999999841e+00 0.000000000000000000e+00 0.000000000000000000e+00 2.672065926999999785e+00 7.016873271999999773e+00 0.000000000000000000e+00 0.000000000000000000e+00 0.000000000000000000e+00 2.000000000000000000e+01
8.187743498999999758e+00 0.000000000000000000e+00 0.000000000000000000e+00 -4.256420864999999942e+00 7.372337717999999818e+00 0.000000000000000000e+00 0.000000000000000000e+00 0.000000000000000000e+00 2.000000000000000000e+01
8.330160733999999678e+00 0.000000000000000000e+00 0.000000000000000000e+00 -3.832072029999999963e+00 6.637343923000000423e+00 0.000000000000000000e+00 0.000000000000000000e+00 0.000000000000000000e+00 2.000000000000000000e+01
8.226839793999999983e+00 0.000000000000000000e+00 0.000000000000000000e+00 -4.382657305000000392e+00 7.590985660000000301e+00 0.000000000000000000e+00 0.000000000000000000e+00 0.000000000000000000e+00 2.000000000000000000e+01
8.624951594000000554e+00 0.000000000000000000e+00 0.000000000000000000e+00 3.505894667000000187e+00 9.584844963000000106e+00 0.000000000000000000e+00 0.000000000000000000e+00 0.000000000000000000e+00 2.000000000000000000e+01
7.874061778999999817e+00 0.000000000000000000e+00 0.000000000000000000e+00 -3.975339346999999801e+00 6.885490212999999748e+00 0.000000000000000000e+00 0.000000000000000000e+00 0.000000000000000000e+00 2.000000000000000000e+01
7.961600352999999686e+00 0.000000000000000000e+00 0.000000000000000000e+00 -4.100656589999999824e+00 7.102546059999999883e+00 0.000000000000000000e+00 0.000000000000000000e+00 0.000000000000000000e+00 2.000000000000000000e+01
7.852296091000000366e+00 0.000000000000000000e+00 0.000000000000000000e+00 -4.186734834000000127e+00 7.251637963000000298e+00 0.000000000000000000e+00 0.000000000000000000e+00 0.000000000000000000e+00 2.000000000000000000e+01
9.237463281000000137e+00 0.000000000000000000e+00 0.000000000000000000e+00 3.381193764999999907e+00 9.243922338999999155e+00 0.000000000000000000e+00 0.000000000000000000e+00 0.000000000000000000e+00 2.000000000000000000e+01
8.287206599999999312e+00 0.000000000000000000e+00 0.000000000000000000e+00 -3.680930429000000004e+00 6.375558972000000324e+00 0.000000000000000000e+00 0.000000000000000000e+00 0.000000000000000000e+00 2.000000000000000000e+01
8.032175732000000679e+00 0.000000000000000000e+00 0.000000000000000000e+00 -4.756418221999999751e+00 8.238358605000000168e+00 0.000000000000000000e+00 0.000000000000000000e+00 0.000000000000000000e+00 2.000000000000000000e+01
8.340180233999999970e+00 0.000000000000000000e+00 0.000000000000000000e+00 3.100413116999999996e+00 8.059949630000000198e+00 0.000000000000000000e+00 0.000000000000000000e+00 0.000000000000000000e+00 2.000000000000000000e+01
7.568236667999999945e+00 0.000000000000000000e+00 0.000000000000000000e+00 -4.153824129000000198e+00 7.194634944999999782e+00 0.000000000000000000e+00 0.000000000000000000e+00 0.000000000000000000e+00 2.000000000000000000e+01
8.310474236999999320e+00 0.000000000000000000e+00 0.000000000000000000e+00 -4.339163085000000031e+00 7.515651457999999785e+00 0.000000000000000000e+00 0.000000000000000000e+00 0.000000000000000000e+00 2.000000000000000000e+01
7.969779734000000282e+00 0.000000000000000000e+00 0.000000000000000000e+00 -3.948070280000000043e+00 6.838258800000000193e+00 0.000000000000000000e+00 0.000000000000000000e+00 0.000000000000000000e+00 2.000000000000000000e+01
7.325136255000000318e+00 0.000000000000000000e+00 0.000000000000000000e+00 2.893350923999999935e+00 7.704345437999999824e+00 0.000000000000000000e+00 0.000000000000000000e+00 0.000000000000000000e+00 2.000000000000000000e+01
8.451276991000000294e+00 0.000000000000000000e+00 0.000000000000000000e+00 -4.394108635000000262e+00 7.610819947000000418e+00 0.000000000000000000e+00 0.000000000000000000e+00 0.000000000000000000e+00 2.000000000000000000e+01
8.333158759999999887e+00 0.000000000000000000e+00 0.000000000000000000e+00 -3.899770291999999916e+00 6.754600759999999759e+00 0.000000000000000000e+00 0.000000000000000000e+00 0.000000000000000000e+00 2.000000000000000000e+01
8.343364288000000073e+00 0.000000000000000000e+00 0.000000000000000000e+00 -4.574416202000000098e+00 7.923121835999999973e+00 0.000000000000000000e+00 0.000000000000000000e+00 0.000000000000000000e+00 2.000000000000000000e+01
8.740661967999999504e+00 0.000000000000000000e+00 0.000000000000000000e+00 -3.785410431999999936e+00 6.556523658999999782e+00 0.000000000000000000e+00 0.000000000000000000e+00 0.000000000000000000e+00 2.000000000000000000e+01
8.471213872999999950e+00 0.000000000000000000e+00 0.000000000000000000e+00 -4.409784213000000008e+00 7.637970847000000063e+00 0.000000000000000000e+00 0.000000000000000000e+00 0.000000000000000000e+00 2.000000000000000000e+01
8.257012543000000093e+00 0.000000000000000000e+00 0.000000000000000000e+00 2.756873002999999933e+00 7.337862591000000378e+00 0.000000000000000000e+00 0.000000000000000000e+00 0.000000000000000000e+00 2.000000000000000000e+01
8.477202208999999655e+00 0.000000000000000000e+00 0.000000000000000000e+00 -4.205497582999999651e+00 7.284136000000000166e+00 0.000000000000000000e+00 0.000000000000000000e+00 0.000000000000000000e+00 2.000000000000000000e+01
7.241529524999999801e+00 0.000000000000000000e+00 0.000000000000000000e+00 -3.832548029999999883e+00 6.638168378999999675e+00 0.000000000000000000e+00 0.000000000000000000e+00 0.000000000000000000e+00 2.000000000000000000e+01
7.691614286000000078e+00 0.000000000000000000e+00 0.000000000000000000e+00 2.620222186999999980e+00 6.977064787999999851e+00 0.000000000000000000e+00 0.000000000000000000e+00 0.000000000000000000e+00 2.000000000000000000e+01
8.135352115999999967e+00 0.000000000000000000e+00 0.000000000000000000e+00 2.831714135999999993e+00 7.361429732000000392e+00 0.000000000000000000e+00 0.000000000000000000e+00 0.000000000000000000e+00 2.000000000000000000e+01
9.002423779000000792e+00 0.000000000000000000e+00 0.000000000000000000e+00 3.169288815999999898e+00 8.664590590999999620e+00 0.000000000000000000e+00 0.000000000000000000e+00 0.000000000000000000e+00 2.000000000000000000e+01
8.154049563999999251e+00 0.000000000000000000e+00 0.000000000000000000e+00 -4.395254216999999741e+00 7.612804153999999990e+00 0.000000000000000000e+00 0.000000000000000000e+00 0.000000000000000000e+00 2.000000000000000000e+01
7.592542106999999874e+00 0.000000000000000000e+00 0.000000000000000000e+00 -4.576730561999999836e+00 7.927130426999999813e+00 0.000000000000000000e+00 0.000000000000000000e+00 0.000000000000000000e+00 2.000000000000000000e+01
8.538980241000000859e+00 0.000000000000000000e+00 0.000000000000000000e+00 -4.319095352999999804e+00 7.480893123999999617e+00 0.000000000000000000e+00 0.000000000000000000e+00 0.000000000000000000e+00 2.000000000000000000e+01
7.106984318000000300e+00 0.000000000000000000e+00 0.000000000000000000e+00 2.492759497999999851e+00 6.634881857999999966e+00 0.000000000000000000e+00 0.000000000000000000e+00 0.000000000000000000e+00 2.000000000000000000e+01
8.469346764999999166e+00 0.000000000000000000e+00 0.000000000000000000e+00 -4.086564391999999657e+00 7.078137656000000000e+00 0.000000000000000000e+00 0.000000000000000000e+00 0.000000000000000000e+00 2.000000000000000000e+01
7.866728966000000156e+00 0.000000000000000000e+00 0.000000000000000000e+00 3.115363175000000151e+00 8.378941409999999479e+00 0.000000000000000000e+00 0.000000000000000000e+00 0.000000000000000000e+00 2.000000000000000000e+01
8.281406651999999369e+00 0.000000000000000000e+00 0.000000000000000000e+00 -4.061671185999999878e+00 7.035021354999999588e+00 0.000000000000000000e+00 0.000000000000000000e+00 0.000000000000000000e+00 2.000000000000000000e+01
7.860248835000000156e+00 0.000000000000000000e+00 0.000000000000000000e+00 2.253799121000000127e+00 5.998850233999999837e+00 0.000000000000000000e+00 0.000000000000000000e+00 0.000000000000000000e+00 2.000000000000000000e+01
9.869962093999999908e+00 0.000000000000000000e+00 0.000000000000000000e+00 3.733085893999999794e+00 1.020596821300000023e+01 0.000000000000000000e+00 0.000000000000000000e+00 0.000000000000000000e+00 2.000000000000000000e+01
7.014840845000000158e+00 0.000000000000000000e+00 0.000000000000000000e+00 -3.866232040999999953e+00 6.696510801999999707e+00 0.000000000000000000e+00 0.000000000000000000e+00 0.000000000000000000e+00 2.000000000000000000e+01
8.662895596000000253e+00 0.000000000000000000e+00 0.000000000000000000e+00 2.748635838000000220e+00 8.061755671000000234e+00 0.000000000000000000e+00 0.000000000000000000e+00 0.000000000000000000e+00 2.000000000000000000e+01
7.318559763999999745e+00 0.000000000000000000e+00 0.000000000000000000e+00 2.633627376999999825e+00 6.846487680000000076e+00 0.000000000000000000e+00 0.000000000000000000e+00 0.000000000000000000e+00 2.000000000000000000e+01
6.955379756000000135e+00 0.000000000000000000e+00 0.000000000000000000e+00 2.403915546999999986e+00 6.249319215999999955e+00 0.000000000000000000e+00 0.000000000000000000e+00 0.000000000000000000e+00 2.000000000000000000e+01
1.154587093199999970e+01 0.000000000000000000e+00 0.000000000000000000e+00 -4.113133933000000297e+00 7.124157453999999667e+00 0.000000000000000000e+00 0.000000000000000000e+00 0.000000000000000000e+00 2.000000000000000000e+01
8.860284153000000273e+00 0.000000000000000000e+00 0.000000000000000000e+00 -3.905613536999999802e+00 6.764721557999999746e+00 0.000000000000000000e+00 0.000000000000000000e+00 0.000000000000000000e+00 2.000000000000000000e+01
7.652108734999999662e+00 0.000000000000000000e+00 0.000000000000000000e+00 -3.673192169000000007e+00 6.362155912999999607e+00 0.000000000000000000e+00 0.000000000000000000e+00 0.000000000000000000e+00 2.000000000000000000e+01
8.376374783999999352e+00 0.000000000000000000e+00 0.000000000000000000e+00 2.790306131999999995e+00 7.426850263000000396e+00 0.000000000000000000e+00 0.000000000000000000e+00 0.000000000000000000e+00 2.000000000000000000e+01
7.400735079999999577e+00 0.000000000000000000e+00 0.000000000000000000e+00 2.520841996999999779e+00 6.709627962999999973e+00 0.000000000000000000e+00 0.000000000000000000e+00 0.000000000000000000e+00 2.000000000000000000e+01
8.223822953000000879e+00 0.000000000000000000e+00 0.000000000000000000e+00 -4.254900976000000057e+00 7.369705192999999710e+00 0.000000000000000000e+00 0.000000000000000000e+00 0.000000000000000000e+00 2.000000000000000000e+01
8.323336189000000829e+00 0.000000000000000000e+00 0.000000000000000000e+00 -4.088477153999999558e+00 7.081450656000000343e+00 0.000000000000000000e+00 0.000000000000000000e+00 0.000000000000000000e+00 2.000000000000000000e+01
8.796946190999999970e+00 0.000000000000000000e+00 0.000000000000000000e+00 -3.979984008999999823e+00 6.893535005000000382e+00 0.000000000000000000e+00 0.000000000000000000e+00 0.000000000000000000e+00 2.000000000000000000e+01
8.724167526000000450e+00 0.000000000000000000e+00 0.000000000000000000e+00 -3.991296275999999921e+00 6.913128427000000187e+00 0.000000000000000000e+00 0.000000000000000000e+00 0.000000000000000000e+00 2.000000000000000000e+01
7.727525949000000338e+00 0.000000000000000000e+00 0.000000000000000000e+00 -4.313476953000000336e+00 7.471161767999999981e+00 0.000000000000000000e+00 0.000000000000000000e+00 0.000000000000000000e+00 2.000000000000000000e+01
8.291636456999999183e+00 0.000000000000000000e+00 0.000000000000000000e+00 -4.221584177000000437e+00 7.311998799000000382e+00 0.000000000000000000e+00 0.000000000000000000e+00 0.000000000000000000e+00 2.000000000000000000e+01
8.045021913999999441e+00 0.000000000000000000e+00 0.000000000000000000e+00 3.544115700999999952e+00 9.689338314000000452e+00 0.000000000000000000e+00 0.000000000000000000e+00 0.000000000000000000e+00 2.000000000000000000e+01
7.997471660000000426e+00 0.000000000000000000e+00 0.000000000000000000e+00 -4.207209307000000287e+00 7.287100792000000382e+00 0.000000000000000000e+00 0.000000000000000000e+00 0.000000000000000000e+00 2.000000000000000000e+01
8.001091135999999437e+00 0.000000000000000000e+00 0.000000000000000000e+00 -3.578072528999999946e+00 6.197403851999999880e+00 0.000000000000000000e+00 0.000000000000000000e+00 0.000000000000000000e+00 2.000000000000000000e+01
