-6.725056297000000427e+01
-6.729141688999999360e+01
-6.535090830000000039e+01
-6.575109931000000074e+01
-6.644633348000000694e+01
-6.539319367999999599e+01
-6.504450065000000336e+01
-6.682726451999999995e+01
-6.582806227000000376e+01
-6.391457481999999857e+01
-6.609193011000000695e+01
-6.758845504999999321e+01
-6.471739375999999311e+01
-6.636087195000000349e+01
-6.492080588999999691e+01
-6.617585128999999711e+01
-6.798477991000000031e+01
-6.569249338999999566e+01
-6.538842513999999539e+01
-6.570684583000000600e+01
-6.540550799000000382e+01
-6.483160574999999426e+01
-6.516038858999999661e+01
-6.531073709000000349e+01
-6.486993923999999367e+01
-6.566510956000000476e+01
-6.603374838000000580e+01
-6.572323409999999910e+01
-6.574296823000000245e+01
-6.680873148000000583e+01
-6.814717810999999870e+01
-6.628785603000000037e+01
-6.636405304999999544e+01
-6.510814917999999807e+01
-6.709398419999999419e+01
-6.631082186999999806e+01
-6.503227513000000215e+01
-6.497706010000000276e+01
-6.626166012999999566e+01
-6.507059320999999841e+01
-6.562115008000000671e+01
-6.455269606000000238e+01
-6.771969936000000700e+01
-6.637268272000000024e+01
-6.655805091999999945e+01
-6.588704812000000288e+01
-6.679119495999999856e+01
-6.656558920000000512e+01
-6.552066628000000037e+01
-6.802022795000000599e+01
-6.571303215999999736e+01
-6.514091741000000013e+01
-6.560467977000000417e+01
-6.822524219999999673e+01
-6.459101748000000498e+01
-6.672528873999999632e+01
-6.547423860000000673e+01
-6.465752482000000612e+01
-6.383719235000000225e+01
-6.649169102000000464e+01
-6.571471948999999313e+01
-6.490161620000000653e+01
-6.701705742000000043e+01
-6.700132182000000114e+01
-6.667448758000000453e+01
-6.554630946000000336e+01
-6.773159805000000233e+01
-6.536984682000000646e+01
-6.452369416999999885e+01
-6.858945070000000044e+01
-6.566685343999999702e+01
-6.554027739999999369e+01
-6.490720652999999629e+01
-6.586098669000000427e+01
-6.582051755999999898e+01
-6.546244287000000384e+01
-6.521280466000000331e+01
-6.576783722999999782e+01
-6.709721928999999818e+01
-6.501974599000000410e+01
-6.619613669000000300e+01
-6.482393575000000396e+01
-6.556931247999999357e+01
-6.508211181999999440e+01
-6.623326980000000219e+01
-6.713924280000000522e+01
-6.514587081000000524e+01
-6.510648236999999483e+01
-6.728115282999999636e+01
-6.568631473000000653e+01
-6.541781457000000444e+01
-6.702110835000000577e+01
-6.670687270000000524e+01
-6.819997488999999291e+01
-6.496339281999999571e+01
-6.570725246000000652e+01
-6.561561326000000349e+01
-6.400858157999999776e+01
-6.609956499000000463e+01
-6.812640102999999669e+01
