8.145360879000000054e+00 0.000000000000000000e+00 0.000000000000000000e+00 4.047684347999999765e+00 7.010795402000000287e+00 0.000000000000000000e+00 0.000000000000000000e+00 0.000000000000000000e+00 2.833487999999999829e+01
8.104369552999999726e+00 0.000000000000000000e+00 0.000000000000000000e+00 3.951991183000000074e+00 7.011985890000000055e+00 0.000000000000000000e+00 5.252801240000000149e-01 -5.640437750000000250e-01 2.832453975800000023e+01
8.018581379000000453e+00 0.000000000000000000e+00 0.000000000000000000e+00 3.863131216999999840e+00 6.854322373999999662e+00 0.000000000000000000e+00 5.252801240000000149e-01 -5.640437750000000250e-01 2.832453975800000023e+01
8.065517559999999975e+00 0.000000000000000000e+00 0.000000000000000000e+00 3.983588102000000131e+00 6.899777441000000344e+00 0.000000000000000000e+00 0.000000000000000000e+00 0.000000000000000000e+00 2.833487999999999829e+01
8.016401364000000029e+00 0.000000000000000000e+00 0.000000000000000000e+00 4.003857478999999664e+00 6.934885034999999753e+00 0.000000000000000000e+00 0.000000000000000000e+00 0.000000000000000000e+00 2.833487999999999829e+01
