1.748969999999999914e+00 1.791870000000000074e+00 1.198359999999999914e+01 -5.543799999999999839e-01 5.574010000000000353e+00 1.160159999999999947e+01 6.119069999999999787e+00 1.993630000000000013e+00 1.153759999999999941e+01 3.671190000000000175e+00 5.257469999999999644e+00 1.185909999999999975e+01 -2.213799999999999935e-01 2.662349999999999994e+00 1.552110000000000056e+01 -1.573939999999999895e+00 5.772350000000000314e+00 1.758149999999999835e+01 4.059890000000000221e+00 3.025799999999999823e+00 1.621049999999999969e+01 1.687300000000000022e+00 6.545950000000000379e+00 1.512500000000000000e+01 8.245670000000000499e+00 4.577399999999999802e-01 1.081780000000000008e+01 5.727000000000000313e+00 4.417440000000000033e+00 1.034960000000000058e+01 3.796739999999999782e+00 5.981199999999999850e-01 1.051079999999999970e+01 1.443829999999999947e+00 4.244369999999999976e+00 1.053800000000000026e+01 2.072210000000000107e+00 2.014990000000000059e+00 1.448780000000000001e+01 -7.538799999999999946e-01 5.163000000000000256e+00 1.416670000000000051e+01 5.696749999999999758e+00 1.513929999999999998e+00 1.433600000000000030e+01 3.850849999999999884e+00 5.205899999999999750e+00 1.445100000000000051e+01 -3.724749999999999783e+00 7.057900000000000063e+00 1.765840000000000032e+01 6.372910000000000075e+00 3.352209999999999912e+00 1.767579999999999885e+01 1.104719999999999924e+00 6.115109999999999602e+00 1.755239999999999867e+01 2.413980000000000015e+00 1.294389999999999930e+00 1.757939999999999969e+01
2.367960000000000065e+00 8.751999999999999780e-01 1.145400000000000063e+01 1.774300000000000044e-01 4.243450000000000166e+00 1.142600000000000016e+01 6.617320000000000313e+00 7.018799999999999484e-01 1.218350000000000044e+01 4.711100000000000065e+00 4.536030000000000229e+00 1.149840000000000018e+01 -5.392299999999999871e-01 2.831430000000000113e+00 1.753579999999999828e+01 -1.563029999999999919e+00 5.265019999999999811e+00 1.479609999999999914e+01 4.505989999999999718e+00 1.945119999999999960e+00 1.545379999999999932e+01 2.026639999999999997e+00 5.261050000000000004e+00 1.718100000000000094e+01 4.618129999999999846e+00 6.880910000000000082e+00 1.050220000000000020e+01 6.727199999999999847e+00 2.889320000000000110e+00 1.065279999999999916e+01 4.893899999999999917e-01 6.811480000000000423e+00 1.053930000000000078e+01 2.431630000000000180e+00 3.459880000000000067e+00 1.023230000000000040e+01 2.260780000000000012e+00 6.388300000000000090e-01 1.412800000000000011e+01 1.313900000000000068e-01 3.626279999999999948e+00 1.391649999999999920e+01 6.213110000000000355e+00 4.003000000000000308e-02 1.467750000000000021e+01 4.639780000000000015e+00 4.342889999999999695e+00 1.438739999999999952e+01 -7.247999999999999998e-01 5.442599999999999660e+00 1.747400000000000020e+01 2.201119999999999965e+00 2.558390000000000164e+00 1.710760000000000147e+01 5.625689999999999635e+00 1.980399999999999938e+00 1.789470000000000027e+01 7.494580000000000020e+00 2.859499999999999820e-01 1.847449999999999903e+01
1.911070000000000046e+00 1.317360000000000086e+00 1.155949999999999989e+01 9.445000000000000617e-02 4.848869999999999791e+00 1.163129999999999953e+01 6.173189999999999955e+00 1.263819999999999943e+00 1.163739999999999952e+01 4.125309999999999810e+00 4.914290000000000269e+00 1.176490000000000080e+01 4.907999999999999863e-02 2.776229999999999976e+00 1.493800000000000061e+01 -2.181480000000000086e+00 4.364539999999999864e+00 1.759740000000000038e+01 4.081990000000000229e+00 2.760400000000000187e+00 1.481339999999999968e+01 2.037599999999999856e+00 4.847190000000000332e+00 1.767229999999999990e+01 -4.358000000000000068e-02 9.384000000000000674e-02 1.039780000000000015e+01 -2.115619999999999834e+00 3.766799999999999926e+00 1.066009999999999991e+01 4.258020000000000138e+00 2.745999999999999830e-02 1.068839999999999968e+01 2.143559999999999910e+00 3.730039999999999800e+00 1.049719999999999942e+01 2.221200000000000063e+00 1.116330000000000044e+00 1.404110000000000014e+01 6.257999999999999674e-02 5.268209999999999837e+00 1.416060000000000052e+01 6.410680000000000156e+00 1.100970000000000004e+00 1.427839999999999954e+01 4.257900000000000240e+00 5.168989999999999974e+00 1.425109999999999921e+01 2.046999999999999861e-02 3.094100000000000072e+00 1.751920000000000144e+01 3.298639999999999795e+00 6.931600000000000428e+00 1.806820000000000093e+01 3.881990000000000052e+00 2.790360000000000174e+00 1.757600000000000051e+01 -2.808590000000000142e+00 6.887039999999999829e+00 1.772810000000000130e+01
2.450340000000000185e+00 1.173850000000000060e+00 1.166469999999999985e+01 2.865900000000000114e-01 4.516670000000000407e+00 1.144309999999999938e+01 6.659139999999999837e+00 1.046280000000000099e+00 1.160899999999999999e+01 4.602940000000000254e+00 4.698210000000000441e+00 1.169260000000000055e+01 3.726999999999999758e-01 2.339100000000000179e+00 1.532499999999999929e+01 -1.846039999999999903e+00 5.813390000000000057e+00 1.569469999999999921e+01 5.153559999999999697e+00 2.299049999999999816e+00 1.747190000000000154e+01 2.329889999999999795e+00 6.191869999999999763e+00 1.540709999999999980e+01 2.216200000000000114e-01 4.556000000000000327e-02 1.050600000000000023e+01 -1.937580000000000080e+00 3.549609999999999932e+00 1.056550000000000011e+01 4.472500000000000142e+00 4.732999999999999707e-02 1.041469999999999985e+01 2.568970000000000198e+00 3.505889999999999951e+00 1.052759999999999962e+01 2.679390000000000160e+00 1.255130000000000079e+00 1.443420000000000059e+01 2.084600000000000064e-01 4.808849999999999625e+00 1.415530000000000044e+01 6.519280000000000186e+00 1.645240000000000036e+00 1.421330000000000027e+01 4.373210000000000264e+00 4.661990000000000300e+00 1.445579999999999998e+01 1.250029999999999974e+00 2.406590000000000007e+00 1.815469999999999828e+01 5.716660000000000075e+00 4.992840000000000167e+00 1.800189999999999912e+01 1.961989999999999901e+00 2.742399999999999838e-01 1.870149999999999935e+01 1.432760000000000034e+00 6.557739999999999903e+00 1.760569999999999879e+01
1.987700000000000022e+00 1.152169999999999916e+00 1.160970000000000013e+01 3.000000000000000076e-05 4.585749999999999993e+00 1.160539999999999949e+01 5.954060000000000130e+00 1.144900000000000029e+00 1.160420000000000051e+01 3.964249999999999829e+00 4.582019999999999982e+00 1.160330000000000084e+01 -7.799999999999999859e-04 2.291150000000000020e+00 1.590680000000000049e+01 -1.984609999999999985e+00 5.729580000000000339e+00 1.590729999999999933e+01 3.974180000000000046e+00 2.293260000000000076e+00 1.590310000000000024e+01 1.986949999999999994e+00 5.727640000000000065e+00 1.590659999999999918e+01 9.899999999999999946e-04 4.129999999999999991e-03 1.025409999999999933e+01 5.955160000000000231e+00 3.429570000000000007e+00 1.025990000000000002e+01 -1.100000000000000066e-03 6.873529999999999696e+00 1.025600000000000023e+01 1.988750000000000018e+00 3.433499999999999996e+00 1.025450000000000017e+01 1.981999999999999984e+00 1.143739999999999979e+00 1.443089999999999939e+01 2.569999999999999802e-03 4.584979999999999833e+00 1.443360000000000021e+01 5.959220000000000184e+00 1.150609999999999911e+00 1.442929999999999957e+01 3.975750000000000117e+00 4.583210000000000228e+00 1.443779999999999930e+01 -3.959999999999999978e-03 2.298519999999999897e+00 1.834280000000000044e+01 -1.984650000000000025e+00 5.729160000000000252e+00 1.834169999999999945e+01 3.978359999999999896e+00 2.288740000000000219e+00 1.833940000000000126e+01 1.985910000000000064e+00 5.728069999999999773e+00 1.833980000000000032e+01
2.236439999999999984e+00 1.335069999999999979e+00 1.134249999999999936e+01 -9.080000000000000571e-02 4.974549999999999805e+00 1.159019999999999939e+01 6.314549999999999663e+00 1.249179999999999957e+00 1.150070000000000014e+01 4.177030000000000243e+00 4.836249999999999716e+00 1.171570000000000000e+01 -5.649999999999999641e-03 2.832590000000000163e+00 1.488790000000000013e+01 5.875090000000000146e+00 4.099219999999999864e+00 1.779309999999999903e+01 3.936549999999999994e+00 2.827519999999999811e+00 1.498070000000000057e+01 1.990359999999999907e+00 4.877900000000000347e+00 1.756240000000000023e+01 3.869000000000000217e-02 1.806999999999999926e-02 1.041280000000000072e+01 -2.059569999999999901e+00 3.724130000000000162e+00 1.052500000000000036e+01 4.230290000000000106e+00 6.339999999999999802e-02 1.031969999999999921e+01 2.081280000000000019e+00 3.800949999999999829e+00 1.036459999999999937e+01 1.923510000000000053e+00 1.222250000000000059e+00 1.404710000000000036e+01 3.438499999999999890e-01 5.208540000000000170e+00 1.415789999999999971e+01 6.286410000000000053e+00 1.200220000000000065e+00 1.440670000000000073e+01 4.592760000000000176e+00 5.300410000000000288e+00 1.425580000000000069e+01 -1.189000000000000057e-01 3.145290000000000141e+00 1.777890000000000015e+01 3.221379999999999910e+00 7.020760000000000112e+00 1.827530000000000143e+01 3.851739999999999942e+00 2.708489999999999842e+00 1.760360000000000014e+01 -2.889390000000000125e+00 6.772470000000000212e+00 1.806919999999999860e+01
2.601939999999999920e+00 1.361769999999999925e+00 1.190230000000000032e+01 1.858100000000000029e-01 4.694989999999999775e+00 1.176490000000000080e+01 6.738209999999999589e+00 1.207980000000000054e+00 1.176060000000000016e+01 4.404899999999999594e+00 4.807559999999999611e+00 1.219769999999999932e+01 -2.539000000000000146e-01 2.221779999999999866e+00 1.642549999999999955e+01 -2.062030000000000030e+00 6.374329999999999607e+00 1.543410000000000082e+01 3.945920000000000094e+00 2.629620000000000068e+00 1.626920000000000144e+01 1.746869999999999923e+00 6.617420000000000080e+00 1.544430000000000014e+01 -3.668750000000000178e+00 7.219450000000000145e+00 1.080059999999999931e+01 -1.989260000000000028e+00 3.767319999999999780e+00 1.061829999999999963e+01 3.324400000000000133e-01 7.235940000000000261e+00 1.070149999999999935e+01 2.316030000000000033e+00 3.926800000000000068e+00 1.082489999999999952e+01 2.210939999999999905e+00 1.489759999999999973e+00 1.440789999999999971e+01 -6.296000000000000207e-02 4.978989999999999583e+00 1.433120000000000083e+01 6.276250000000000107e+00 1.751840000000000064e+00 1.434950000000000081e+01 4.121369999999999756e+00 4.830180000000000362e+00 1.459830000000000005e+01 -9.023499999999999854e-01 3.935070000000000068e+00 1.806520000000000081e+01 3.880079999999999973e+00 6.935060000000000002e+00 1.689460000000000051e+01 4.178619999999999557e+00 2.337400000000000033e-01 1.720050000000000168e+01 1.754620000000000068e+00 3.675969999999999960e+00 1.764920000000000044e+01
1.983859999999999957e+00 1.147019999999999929e+00 1.160040000000000049e+01 -1.580000000000000024e-03 4.585009999999999586e+00 1.160239999999999938e+01 5.958960000000000257e+00 1.139469999999999983e+00 1.160430000000000028e+01 3.971169999999999867e+00 4.578240000000000087e+00 1.160820000000000007e+01 2.030000000000000120e-03 2.284110000000000085e+00 1.591339999999999932e+01 -1.990280000000000049e+00 5.729099999999999859e+00 1.591520000000000046e+01 3.964339999999999975e+00 2.294929999999999914e+00 1.590370000000000061e+01 1.986320000000000086e+00 5.733259999999999579e+00 1.590000000000000036e+01 3.969209999999999905e+00 6.875060000000000393e+00 1.025680000000000014e+01 5.954930000000000057e+00 3.435760000000000147e+00 1.025300000000000011e+01 3.969359999999999999e+00 6.000000000000000152e-05 1.025709999999999944e+01 1.984059999999999935e+00 3.435119999999999951e+00 1.025880000000000081e+01 1.984879999999999978e+00 1.146060000000000079e+00 1.443210000000000015e+01 -1.350000000000000071e-03 4.588630000000000209e+00 1.443750000000000000e+01 5.960370000000000168e+00 1.146419999999999995e+00 1.443290000000000006e+01 3.969069999999999876e+00 4.584859999999999935e+00 1.443060000000000009e+01 -1.260000000000000052e-03 2.295669999999999877e+00 1.835050000000000026e+01 -1.989160000000000039e+00 5.733179999999999943e+00 1.834329999999999927e+01 3.968100000000000183e+00 2.288130000000000219e+00 1.834219999999999828e+01 1.980679999999999996e+00 5.724219999999999864e+00 1.834700000000000131e+01
2.360730000000000217e+00 1.132489999999999997e+00 1.161120000000000019e+01 1.710699999999999998e-01 4.840519999999999712e+00 1.181250000000000000e+01 6.378650000000000375e+00 1.110579999999999901e+00 1.188920000000000066e+01 4.075820000000000221e+00 4.832690000000000374e+00 1.181179999999999986e+01 -6.022000000000000269e-02 3.174129999999999896e+00 1.606680000000000064e+01 -2.162879999999999914e+00 6.944130000000000358e+00 1.587379999999999924e+01 3.814890000000000114e+00 2.750840000000000174e+00 1.580339999999999989e+01 1.784790000000000099e+00 6.366080000000000183e+00 1.627179999999999893e+01 -3.872599999999999820e+00 7.268679999999999808e+00 1.045860000000000056e+01 -1.812249999999999917e+00 3.624000000000000110e+00 1.067600000000000016e+01 1.250999999999999890e-01 7.268650000000000055e+00 1.065600000000000058e+01 2.039400000000000102e+00 3.657000000000000028e+00 1.057959999999999923e+01 1.549739999999999895e+00 1.424770000000000092e+00 1.407429999999999914e+01 4.640000000000000027e-03 5.324349999999999916e+00 1.455540000000000056e+01 5.981779999999999653e+00 1.613879999999999981e+00 1.456809999999999938e+01 4.247580000000000133e+00 5.248750000000000249e+00 1.453049999999999997e+01 6.780100000000000016e+00 1.846649999999999903e+00 1.800809999999999889e+01 3.889499999999999957e+00 7.055469999999999686e+00 1.770449999999999946e+01 4.109189999999999898e+00 4.465999999999999970e-01 1.734250000000000114e+01 2.232920000000000016e+00 3.682160000000000100e+00 1.737160000000000082e+01
2.234100000000000197e+00 1.313220000000000054e+00 1.156540000000000035e+01 6.140999999999999931e-02 4.793890000000000207e+00 1.152500000000000036e+01 6.417690000000000339e+00 1.331080000000000041e+00 1.185960000000000036e+01 4.528690000000000104e+00 4.825179999999999580e+00 1.153470000000000084e+01 9.868000000000000382e-02 2.926849999999999952e+00 1.511469999999999914e+01 -2.382740000000000080e+00 4.678600000000000314e+00 1.731119999999999948e+01 4.246480000000000032e+00 2.653789999999999871e+00 1.500089999999999968e+01 2.218179999999999819e+00 4.289060000000000095e+00 1.789570000000000149e+01 4.553999999999999715e-02 1.893600000000000005e-01 1.041990000000000016e+01 -2.049609999999999932e+00 3.581210000000000004e+00 1.043750000000000000e+01 4.316370000000000040e+00 9.859999999999999321e-02 1.053800000000000026e+01 2.338839999999999808e+00 3.646710000000000118e+00 1.036780000000000079e+01 2.314010000000000122e+00 1.134600000000000053e+00 1.421509999999999962e+01 2.960400000000000253e-01 5.333680000000000199e+00 1.411550000000000082e+01 6.748289999999999900e+00 1.283830000000000027e+00 1.430519999999999925e+01 4.302830000000000155e+00 5.097489999999999633e+00 1.403570000000000029e+01 -2.700400000000000023e-01 3.184769999999999879e+00 1.763510000000000133e+01 3.071670000000000122e+00 6.681869999999999976e+00 1.832310000000000016e+01 4.232540000000000191e+00 2.801410000000000178e+00 1.761159999999999926e+01 -3.380819999999999936e+00 7.129509999999999792e+00 1.758099999999999952e+01
1.549619999999999997e+00 1.209330000000000016e+00 1.145449999999999946e+01 -6.759399999999999853e-01 4.902860000000000440e+00 1.148329999999999984e+01 5.702219999999999622e+00 1.031420000000000003e+00 1.162969999999999970e+01 3.358659999999999979e+00 4.974029999999999951e+00 1.132290000000000063e+01 2.170499999999999929e-01 3.780710000000000015e+00 1.819989999999999952e+01 -1.239130000000000065e+00 6.806980000000000253e+00 1.819359999999999999e+01 3.120989999999999931e+00 2.323739999999999917e+00 1.475859999999999950e+01 1.170770000000000088e+00 5.822580000000000311e+00 1.461239999999999917e+01 7.572440000000000282e+00 6.112000000000000072e-02 1.004349999999999987e+01 5.477129999999999832e+00 3.394960000000000200e+00 1.046739999999999959e+01 -4.944899999999999851e-01 7.274239999999999817e+00 1.045780000000000065e+01 1.465489999999999959e+00 3.634430000000000049e+00 9.997809999999999420e+00 9.142500000000000071e-01 1.306419999999999915e+00 1.395870000000000033e+01 -1.170469999999999899e+00 4.746769999999999712e+00 1.398969999999999914e+01 5.577799999999999869e+00 1.211300000000000043e+00 1.425960000000000072e+01 3.492430000000000145e+00 4.965399999999999814e+00 1.405470000000000041e+01 2.006139999999999812e+00 1.993829999999999991e+00 1.903249999999999886e+01 -2.161540000000000017e+00 4.480629999999999669e+00 1.874490000000000123e+01 1.412439999999999918e+00 6.188180000000000014e+00 1.734819999999999851e+01 3.635019999999999918e+00 2.177630000000000177e+00 1.742699999999999960e+01
2.603870000000000129e+00 6.423900000000000166e-01 1.144960000000000022e+01 4.359199999999999742e-01 4.035059999999999647e+00 1.166590000000000060e+01 6.916559999999999597e+00 4.884200000000000208e-01 1.175590000000000046e+01 4.949659999999999727e+00 4.259319999999999773e+00 1.139879999999999960e+01 -4.903500000000000081e-01 2.602219999999999978e+00 1.802809999999999846e+01 -1.511400000000000077e+00 5.038560000000000372e+00 1.502439999999999998e+01 4.582300000000000040e+00 1.622589999999999977e+00 1.481119999999999948e+01 1.490329999999999933e+00 5.409019999999999939e+00 1.743339999999999890e+01 -3.549139999999999961e+00 6.460139999999999993e+00 1.020780000000000065e+01 6.804450000000000109e+00 2.768569999999999975e+00 1.046509999999999962e+01 6.828899999999999970e-01 6.253750000000000142e+00 1.050189999999999912e+01 2.584029999999999827e+00 3.235529999999999795e+00 1.043360000000000021e+01 2.228060000000000151e+00 7.860300000000000065e-01 1.421129999999999960e+01 4.964399999999999924e-01 3.768689999999999873e+00 1.409619999999999962e+01 6.697510000000000296e+00 4.696100000000000274e-01 1.441070000000000029e+01 4.855299999999999727e+00 4.444390000000000285e+00 1.418570000000000064e+01 -1.180029999999999912e+00 5.182909999999999684e+00 1.776330000000000098e+01 2.099639999999999951e+00 2.809610000000000163e+00 1.765930000000000177e+01 4.717970000000000219e+00 2.553110000000000213e+00 1.731589999999999918e+01 5.932509999999999728e+00 8.137699999999999934e-01 1.867989999999999995e+01
1.368900000000000006e+00 1.444399999999999906e+00 1.177560000000000073e+01 -9.986800000000000122e-01 4.972839999999999705e+00 1.140310000000000024e+01 5.344030000000000058e+00 1.167130000000000001e+00 1.154480000000000040e+01 3.687019999999999964e+00 5.084579999999999878e+00 1.131690000000000040e+01 1.780200000000000005e+00 3.189039999999999875e+00 1.819350000000000023e+01 -1.306400000000000061e-01 6.664049999999999585e+00 1.827469999999999928e+01 3.889170000000000016e+00 2.281540000000000123e+00 1.498649999999999949e+01 9.260300000000000198e-01 4.177279999999999660e+00 1.435790000000000077e+01 7.752550000000000274e+00 5.010299999999999754e-01 1.035880000000000045e+01 5.758840000000000181e+00 3.700309999999999988e+00 1.016290000000000049e+01 3.178819999999999979e+00 2.289700000000000069e-01 9.993750000000000355e+00 1.297309999999999963e+00 3.686490000000000045e+00 1.062170000000000059e+01 1.232460000000000111e+00 1.673899999999999944e+00 1.463770000000000060e+01 -1.376370000000000093e+00 5.223860000000000170e+00 1.385560000000000080e+01 5.886779999999999902e+00 7.844200000000000061e-01 1.403950000000000031e+01 3.559499999999999886e+00 4.716380000000000017e+00 1.394020000000000081e+01 1.520340000000000025e+00 4.884100000000000108e-01 1.761309999999999931e+01 4.332799999999999985e-01 4.805220000000000269e+00 1.999311000000000149e+01 1.497400000000000064e+00 5.153640000000000221e+00 1.668639999999999901e+01 4.585449999999999804e+00 2.427519999999999900e+00 1.759120000000000061e+01
1.952919999999999989e+00 1.352279999999999927e+00 1.156290000000000084e+01 -1.350600000000000134e-01 5.047189999999999621e+00 1.171700000000000053e+01 6.291489999999999583e+00 1.522809999999999997e+00 1.175009999999999977e+01 4.188410000000000188e+00 5.156600000000000072e+00 1.163279999999999959e+01 1.172499999999999931e-01 2.760289999999999910e+00 1.484609999999999985e+01 -2.164989999999999970e+00 3.977930000000000188e+00 1.780049999999999955e+01 4.359300000000000175e+00 2.709810000000000052e+00 1.474160000000000004e+01 2.366760000000000197e+00 4.310920000000000307e+00 1.758950000000000102e+01 8.304059999999999775e+00 1.937300000000000133e-01 1.035149999999999970e+01 -2.144719999999999960e+00 3.860529999999999795e+00 1.060539999999999949e+01 4.180130000000000123e+00 3.836700000000000110e-01 1.049719999999999942e+01 1.999160000000000048e+00 3.877800000000000136e+00 1.064770000000000039e+01 2.330700000000000216e+00 1.129750000000000032e+00 1.416179999999999950e+01 -2.883499999999999952e-01 5.193100000000000271e+00 1.430240000000000045e+01 6.512940000000000396e+00 1.104999999999999982e+00 1.433220000000000027e+01 4.156159999999999854e+00 5.193800000000000416e+00 1.415820000000000078e+01 1.454799999999999982e-01 2.887189999999999923e+00 1.757679999999999865e+01 3.633620000000000072e+00 6.661669999999999980e+00 1.737059999999999960e+01 4.286050000000000360e+00 2.455830000000000179e+00 1.746630000000000038e+01 -2.684619999999999784e+00 6.474490000000000300e+00 1.835800000000000054e+01
2.094619999999999926e+00 1.279069999999999929e+00 1.157789999999999964e+01 -2.001000000000000001e-02 4.944569999999999688e+00 1.170539999999999914e+01 6.208919999999999995e+00 1.273419999999999996e+00 1.146180000000000021e+01 4.144849999999999923e+00 4.987049999999999983e+00 1.181859999999999999e+01 -1.765200000000000102e-01 2.983820000000000139e+00 1.470040000000000013e+01 -2.215869999999999784e+00 4.393250000000000099e+00 1.768599999999999994e+01 3.984179999999999833e+00 2.913749999999999840e+00 1.482530000000000037e+01 2.005990000000000162e+00 4.594669999999999810e+00 1.749239999999999995e+01 4.014199999999999768e+00 7.249279999999999724e+00 1.041709999999999958e+01 -2.058660000000000156e+00 3.729849999999999888e+00 1.054950000000000010e+01 -1.993499999999999994e-01 7.351420000000000066e+00 1.049959999999999916e+01 2.039930000000000021e+00 3.675660000000000149e+00 1.052480000000000082e+01 1.835269999999999957e+00 1.305660000000000043e+00 1.419299999999999962e+01 1.029899999999999982e-01 5.400280000000000413e+00 1.415409999999999968e+01 6.056659999999999933e+00 1.255779999999999896e+00 1.423189999999999955e+01 4.092159999999999798e+00 5.373949999999999783e+00 1.435469999999999935e+01 -2.028200000000000003e-01 2.820260000000000211e+00 1.751719999999999899e+01 3.163320000000000132e+00 6.777590000000000003e+00 1.848499999999999943e+01 3.936100000000000154e+00 2.841410000000000213e+00 1.757590000000000074e+01 -2.903239999999999821e+00 6.847369999999999735e+00 1.786710000000000065e+01
2.293979999999999908e+00 9.184499999999999886e-01 1.168570000000000064e+01 2.306400000000000117e-01 4.532639999999999780e+00 1.155030000000000001e+01 6.529600000000000293e+00 7.942299999999999915e-01 1.177239999999999931e+01 4.368529999999999802e+00 4.680060000000000109e+00 1.183009999999999984e+01 5.199999999999999761e-02 4.557220000000000049e+00 1.784100000000000108e+01 -1.513069999999999915e+00 5.478430000000000355e+00 1.526500000000000057e+01 3.425959999999999894e+00 2.124579999999999913e+00 1.652670000000000172e+01 2.705760000000000165e+00 5.567759999999999820e+00 1.518440000000000012e+01 4.697899999999999743e+00 6.812839999999999563e+00 1.045420000000000016e+01 6.526270000000000238e+00 3.438429999999999875e+00 1.074000000000000021e+01 5.441700000000000426e-01 6.877670000000000172e+00 1.029219999999999935e+01 2.583849999999999980e+00 3.207590000000000163e+00 1.045299999999999940e+01 1.778029999999999999e+00 8.840400000000000480e-01 1.417159999999999975e+01 6.210499999999999909e-01 4.235920000000000130e+00 1.411999999999999922e+01 6.446110000000000007e+00 1.113720000000000043e+00 1.437129999999999974e+01 4.664559999999999818e+00 3.972090000000000121e+00 1.429560000000000031e+01 -6.501900000000000457e-01 2.127320000000000100e+00 1.767020000000000124e+01 -1.435359999999999969e+00 6.638390000000000235e+00 1.763990000000000080e+01 2.731539999999999857e+00 4.824530000000000207e+00 1.765459999999999852e+01 5.745580000000000354e+00 2.890940000000000065e+00 1.791700000000000159e+01
1.791500000000000092e+00 1.149310000000000054e+00 1.168689999999999962e+01 -1.740599999999999925e-01 4.576740000000000030e+00 1.180059999999999931e+01 6.034869999999999735e+00 1.161890000000000089e+00 1.201159999999999961e+01 4.020710000000000228e+00 4.642830000000000013e+00 1.161459999999999937e+01 7.199999999999999803e-03 2.382239999999999913e+00 1.705709999999999837e+01 -1.916439999999999921e+00 5.651980000000000004e+00 1.514109999999999978e+01 4.223340000000000316e+00 2.071670000000000122e+00 1.501529999999999987e+01 8.077299999999999480e-01 6.496909999999999741e+00 1.745279999999999987e+01 3.824219999999999953e+00 7.074300000000000033e+00 1.064140000000000086e+01 6.121550000000000047e+00 3.437539999999999818e+00 1.050060000000000038e+01 3.967360000000000220e+00 1.855000000000000052e-02 1.078480000000000061e+01 1.859599999999999920e+00 3.516620000000000079e+00 1.046570000000000000e+01 1.855860000000000065e+00 1.100389999999999979e+00 1.425350000000000072e+01 9.715000000000000024e-02 4.097400000000000375e+00 1.429049999999999976e+01 6.390460000000000029e+00 6.073600000000000110e-01 1.447659999999999947e+01 4.045460000000000278e+00 4.647319999999999673e+00 1.424200000000000088e+01 2.095099999999999962e+00 3.837099999999999955e+00 1.757929999999999993e+01 -1.801690000000000014e+00 5.850839999999999819e+00 1.774650000000000105e+01 4.106390000000000207e+00 2.194329999999999892e+00 1.760810000000000031e+01 3.862070000000000114e+00 6.669069999999999609e+00 1.700359999999999872e+01
1.990820000000000034e+00 1.149669999999999970e+00 1.160749999999999993e+01 -2.269999999999999882e-03 4.580350000000000144e+00 1.160009999999999941e+01 5.947600000000000442e+00 1.146919999999999940e+00 1.160069999999999979e+01 3.971940000000000026e+00 4.580379999999999896e+00 1.160330000000000084e+01 4.000000000000000327e-05 2.291090000000000071e+00 1.590990000000000038e+01 -1.981319999999999970e+00 5.727879999999999860e+00 1.590930000000000000e+01 3.969500000000000028e+00 2.291570000000000107e+00 1.590799999999999947e+01 1.989340000000000108e+00 5.736460000000000115e+00 1.590799999999999947e+01 7.933830000000000382e+00 5.230000000000000274e-03 1.025619999999999976e+01 -1.980490000000000084e+00 3.438079999999999803e+00 1.025740000000000052e+01 1.850000000000000082e-03 6.872560000000000002e+00 1.025459999999999994e+01 1.982310000000000016e+00 3.437660000000000160e+00 1.026069999999999993e+01 1.984590000000000076e+00 1.145680000000000032e+00 1.443229999999999968e+01 -6.000000000000000152e-05 4.584150000000000169e+00 1.443340000000000067e+01 5.950980000000000381e+00 1.147580000000000044e+00 1.443110000000000070e+01 3.969349999999999934e+00 4.583440000000000403e+00 1.443219999999999992e+01 -1.990000000000000015e-03 2.289890000000000203e+00 1.833930000000000149e+01 -1.987179999999999946e+00 5.734460000000000335e+00 1.834319999999999951e+01 3.969500000000000028e+00 2.291519999999999779e+00 1.834159999999999968e+01 1.978439999999999976e+00 5.723539999999999850e+00 1.834029999999999916e+01
2.351949999999999985e+00 1.480580000000000007e+00 1.165520000000000067e+01 -7.595999999999999974e-02 4.879640000000000200e+00 1.159019999999999939e+01 6.394680000000000142e+00 1.008739999999999970e+00 1.176389999999999958e+01 4.190850000000000186e+00 4.816399999999999793e+00 1.191399999999999970e+01 -2.121999999999999928e-02 4.304109999999999658e+00 1.795550000000000068e+01 -1.998429999999999929e+00 5.834629999999999761e+00 1.480599999999999916e+01 3.741740000000000066e+00 2.236720000000000041e+00 1.553810000000000002e+01 1.648590000000000000e+00 5.991959999999999731e+00 1.585110000000000063e+01 -4.001730000000000231e+00 7.106340000000000323e+00 1.059730000000000061e+01 5.978469999999999729e+00 3.485619999999999941e+00 1.071419999999999995e+01 4.203050000000000175e+00 1.659000000000000058e-02 1.054349999999999987e+01 2.166490000000000027e+00 3.854470000000000063e+00 1.041150000000000020e+01 1.595050000000000079e+00 1.443810000000000038e+00 1.424540000000000006e+01 7.122000000000000552e-02 4.374950000000000117e+00 1.427749999999999986e+01 5.886250000000000426e+00 9.445700000000000207e-01 1.440980000000000061e+01 3.807669999999999888e+00 4.746179999999999843e+00 1.438310000000000066e+01 -9.401100000000000012e-01 1.876829999999999998e+00 1.817139999999999844e+01 -1.286739999999999995e+00 6.503960000000000186e+00 1.726099999999999923e+01 2.651559999999999917e+00 4.440680000000000405e+00 1.783180000000000121e+01 5.147969999999999935e+00 2.565409999999999968e+00 1.777899999999999991e+01