-6.815502956000000268e+01
-6.886832988999999827e+01
-6.915409492999999941e+01
-6.801487314999999967e+01
-6.551209197000000017e+01
-6.932343403999999509e+01
-6.877461323999999365e+01
-6.551087965000000679e+01
-6.872627645999999402e+01
-6.920337729999999965e+01
-6.864468245000000479e+01
-6.829654669999999328e+01
-6.946945236000000534e+01
-6.962446878999999456e+01
-6.959504207999999892e+01
-6.881567587000000685e+01
-6.915136361999999792e+01
-6.551315495999999428e+01
-6.886795639999999707e+01
-6.931980728000000624e+01
-6.952241804000000513e+01
-6.897941000999999517e+01
-6.551195366000000320e+01
-6.937629880000000071e+01
-6.551186663000000010e+01
-6.838352005000000133e+01
-6.565935826000000475e+01
-6.961905826000000275e+01
-6.551186663000000010e+01
-6.864128811999999868e+01
-6.926315329999999904e+01
-6.551332451999999762e+01
-6.949405385999999396e+01
-6.969801698000000556e+01
-6.908322716000000696e+01
-6.846331612999999550e+01
-7.040026165999999819e+01
-6.960197737999999390e+01
-6.551257687000000374e+01
-6.551311332000000220e+01
-6.920284852000000342e+01
-6.955382219000000532e+01
-6.894527718000000505e+01
-6.551332451999999762e+01
-6.853590613000000076e+01
-6.953276375000000087e+01
-6.899549670999999762e+01
-6.935854969999999753e+01
-6.880753221999999880e+01
-7.001803069999999707e+01
-6.759083180999999740e+01
-6.979294971000000203e+01
-6.957702810000000682e+01
-6.922494240000000332e+01
-6.817535895000000323e+01
-6.933870392000000038e+01
-6.952402913000000240e+01
-6.621662329000000113e+01
-6.551087965000000679e+01
-6.918319873000000086e+01
-6.865559944000000314e+01
-6.869754100000000108e+01
-6.551154796999999519e+01
-6.861647727000000430e+01
-6.947792556999999647e+01
-6.966783273999999437e+01
-6.928433886000000541e+01
-6.923984785000000386e+01
-6.934585217999999429e+01
-6.974788381999999842e+01
-6.806862778999999364e+01
-6.969935313000000576e+01
-6.844167597999999941e+01
-6.868713794999999322e+01
-6.927287538000000211e+01
-6.862125020000000575e+01
-6.946778935000000388e+01
-6.817359433999999396e+01
-6.881887666999999453e+01
-6.946612607000000139e+01
-6.551195366000000320e+01
-6.874268422000000101e+01
-6.958695237999999961e+01
-6.902595298999999329e+01
-6.939213714000000266e+01
-6.865885369000000082e+01
-6.965973637000000451e+01
-6.603779525999999578e+01
-6.973269559000000584e+01
-6.875725540000000535e+01
-6.762083230999999728e+01
-6.949472837999999797e+01
-6.551266053000000511e+01
-6.953887330000000588e+01
-6.936947148999999513e+01
-6.901028872000000547e+01
-6.951348830000000589e+01
-6.941195317999999759e+01
-6.930031001999999773e+01
