-6.417000000000000481e-02 3.770600000000000340e-02 -7.905630000000000157e-01 -2.351149999999999907e-01 2.492590000000000083e-01 -6.062100000000000127e-02 -4.402659999999999907e-01 -7.590160000000000240e-01 5.401299999999999851e-02 -3.270390000000000241e-01 4.943529999999999869e-01 -4.363960000000000061e-01 -8.193369999999999820e-01 2.476510000000000100e-01 3.413869999999999960e-01 9.942299999999999471e-01 7.545680000000000165e-01 -3.874330000000000274e-01 -6.208799999999999736e-02 -5.418900000000000106e-02 3.521119999999999806e-01 -7.078269999999999840e-01 -6.282159999999999966e-01 -1.648390000000000133e-01 -3.622980000000000089e-01 -8.684999999999999665e-02 2.011830000000000007e-01 3.805160000000000209e-01 -2.582289999999999863e-01 5.217270000000000518e-01 1.333689999999999876e-01 -5.670000000000000040e-02 6.198409999999999753e-01 6.191809999999999814e-01 -1.412920000000000009e-01 1.659029999999999949e-01 -2.367750000000000132e-01 -8.209220000000000406e-01 -2.475590000000000013e-01 4.293330000000000202e-01 4.154280000000000195e-01 2.200509999999999966e-01 6.770190000000000374e-01 4.377159999999999940e-01 -5.037449999999999983e-01 2.339469999999999883e-01 7.823630000000000306e-01 -1.922870000000000135e-01 -2.385879999999999945e-01 2.085690000000000044e-01 -4.933300000000000185e-02 6.656779999999999919e-01 -1.258485000000000076e+00 -4.171570000000000000e-01 -4.392039999999999833e-01 -1.866120000000000001e-01 3.620380000000000265e-01 -2.005659999999999943e-01 6.228979999999999517e-01 4.116790000000000171e-01
-2.979249999999999954e-01 2.825790000000000246e-01 2.818000000000000019e-02 -1.439900000000000034e-02 3.062940000000000107e-01 1.006510000000000044e-01 -1.478100000000000074e-02 -1.568289999999999962e-01 1.353669999999999873e-01 -8.407799999999999996e-02 -1.002472000000000030e+00 6.055690000000000239e-01 2.592579999999999885e-01 -6.236899999999999666e-01 1.607349999999999890e-01 -1.779959999999999876e-01 -3.359099999999999864e-01 3.745550000000000268e-01 -1.275900000000000090e-01 -5.406990000000000407e-01 -2.364590000000000025e-01 1.479969999999999897e-01 1.019749999999999962e-01 -2.164590000000000125e-01 3.812780000000000058e-01 5.178439999999999710e-01 2.262889999999999902e-01 -2.527260000000000062e-01 5.906249999999999556e-01 -1.987559999999999882e-01 -1.399590000000000001e-01 -4.042209999999999970e-01 -6.208400000000000030e-02 2.125650000000000039e-01 -8.109399999999999942e-01 6.490909999999999735e-01 -2.664050000000000029e-01 9.493800000000000017e-01 -4.041770000000000085e-01 4.099400000000000266e-01 -3.753819999999999935e-01 -6.458700000000000552e-02 2.588699999999999890e-01 2.457249999999999990e-01 -2.986190000000000233e-01 2.754770000000000274e-01 5.393980000000000441e-01 -6.520829999999999682e-01 -2.822259999999999769e-01 4.233439999999999981e-01 -4.393560000000000243e-01 -5.607000000000000178e-02 4.885269999999999890e-01 2.427729999999999888e-01 3.139850000000000141e-01 -3.275830000000000131e-01 5.011860000000000204e-01 -5.452139999999999764e-01 1.320330000000000115e-01 -4.518150000000000222e-01
5.687900000000000178e-01 -2.327079999999999982e-01 -6.132440000000000113e-01 -4.183669999999999889e-01 4.668490000000000140e-01 6.332269999999999843e-01 1.330945999999999962e+00 5.288450000000000095e-01 6.288559999999999706e-01 4.220800000000000107e-01 5.655329999999999524e-01 -4.559239999999999959e-01 -8.616500000000000548e-02 -2.806580000000000186e-01 -8.398120000000000029e-01 -1.386161999999999894e+00 1.151749999999999996e-01 8.056999999999999926e-03 6.869189999999999463e-01 -8.977309999999999457e-01 7.337160000000000348e-01 1.931599999999999984e-01 -8.982379999999999809e-01 -1.335719999999999963e-01 -4.560489999999999822e-01 -4.114439999999999764e-01 2.960920000000000218e-01 -2.240469999999999962e-01 -2.425879999999999981e-01 -3.381730000000000014e-01 -1.228679000000000077e+00 -3.145950000000000135e-01 -9.321639999999999926e-01 1.104389999999999955e-01 -1.580950000000000133e-01 -5.309749999999999748e-01 -6.307779999999999498e-01 6.350999999999999875e-03 1.073085000000000067e+00 1.026210000000000039e-01 -4.518360000000000154e-01 1.000489999999999990e-01 -3.131369999999999987e-01 5.477199999999999847e-01 -3.609999999999999928e-03 4.577200000000000019e-02 7.415880000000000249e-01 1.608479999999999910e-01 2.158930000000000016e-01 -5.060390000000000166e-01 5.080310000000000104e-01 -6.783899999999999653e-02 1.107968000000000064e+00 3.025510000000000144e-01 4.157270000000000132e-01 3.786109999999999753e-01 -5.836999999999999966e-01 7.188750000000000417e-01 -6.470700000000000063e-02 -1.333699999999999990e-02
-2.033790000000000042e-01 -3.673279999999999879e-01 6.929119999999999724e-01 3.329750000000000210e-01 2.024670000000000081e-01 4.481180000000000163e-01 -1.797799999999999954e-01 3.385099999999999776e-01 2.226100000000000023e-01 -1.547860000000000069e-01 -3.313590000000000146e-01 1.293355999999999950e+00 3.136729999999999796e-01 -1.192999999999999963e-02 7.352969999999999784e-01 -3.851840000000000264e-01 -2.656660000000000132e-01 -1.099200000000000003e-02 -1.336100000000000065e-01 1.591090000000000004e-01 -1.572040000000000104e-01 7.163570000000000215e-01 -5.569889999999999564e-01 -1.400533999999999946e+00 3.282700000000000062e-01 6.786119999999999930e-01 -2.573349999999999804e-01 -2.072569999999999968e-01 -4.877659999999999774e-01 -4.053899999999999726e-01 3.683899999999999675e-02 3.204200000000000104e-02 -2.042319999999999969e-01 -6.885199999999999654e-02 1.651569999999999983e-01 -4.041199999999999792e-01 -1.751030000000000086e-01 1.180559999999999943e-01 -4.989359999999999906e-01 3.156240000000000157e-01 -8.407599999999999796e-02 -4.471499999999999780e-02 6.447400000000000353e-02 1.570300000000000168e-02 -1.708989999999999954e-01 1.342119999999999980e-01 2.223769999999999913e-01 -4.376800000000000135e-01 -7.521379999999999733e-01 4.458980000000000166e-01 -7.949399999999999800e-01 -4.859530000000000238e-01 -1.890509999999999968e-01 -3.459139999999999993e-01 1.006885000000000030e+00 2.725750000000000117e-01 5.325849999999999751e-01 -5.032659999999999911e-01 -3.563419999999999921e-01 1.208013999999999921e+00
-1.923300000000000010e-02 -4.936200000000000310e-02 -5.925600000000000311e-02 8.878000000000000475e-03 -3.084500000000000089e-02 -4.585700000000000193e-02 2.931000000000000012e-03 -3.262500000000000122e-02 -3.252499999999999836e-02 4.167799999999999977e-02 2.802899999999999836e-02 -3.715399999999999953e-02 1.454599999999999990e-02 7.919000000000000691e-03 6.740899999999999670e-02 2.032399999999999832e-02 -1.180000000000000059e-03 5.807600000000000262e-02 -1.972900000000000001e-02 -1.959800000000000084e-02 6.412700000000000344e-02 1.036999999999999944e-03 9.721999999999999739e-03 2.309200000000000141e-02 1.946200000000000013e-02 -8.201999999999999222e-03 1.155619999999999981e-01 -6.689999999999999766e-03 4.320399999999999935e-02 7.473699999999999788e-02 -3.275999999999999832e-03 1.789900000000000171e-02 8.657299999999999718e-02 -4.411500000000000143e-02 2.156500000000000083e-02 6.455400000000000027e-02 2.413099999999999967e-02 2.414600000000000080e-02 -2.299100000000000102e-02 1.090999999999999956e-03 6.426000000000000288e-03 -4.005700000000000233e-02 -1.458399999999999974e-02 -3.153199999999999753e-02 -4.621999999999999720e-02 -2.753200000000000092e-02 9.608999999999999486e-03 -7.301799999999999957e-02 -3.284000000000000027e-03 4.655000000000000283e-03 -6.398399999999999921e-02 2.658000000000000206e-03 -1.051000000000000068e-03 -4.115900000000000114e-02 2.596999999999999916e-03 -3.337999999999999821e-03 -6.215999999999999998e-02 -8.899999999999999491e-04 4.558999999999999685e-03 -2.974800000000000014e-02
-8.988300000000000178e-01 1.143050000000000038e-01 4.569420000000000148e-01 7.136710000000000553e-01 2.665399999999999991e-01 5.783310000000000395e-01 2.832740000000000258e-01 -1.342349999999999932e-01 9.383669999999999511e-01 -3.937500000000000028e-02 6.679429999999999534e-01 1.585580000000000045e-01 -6.368449999999999944e-01 -4.548860000000000126e-01 4.099110000000000253e-01 8.117790000000000283e-01 1.507754999999999956e+00 3.129799999999999804e-01 5.589520000000000044e-01 -1.684509999999999896e-01 -8.215620000000000145e-01 -1.747599999999999848e-02 -3.235620000000000163e-01 -4.232639999999999736e-01 5.975699999999999762e-02 -2.021910000000000096e-01 2.546320000000000250e-01 -5.043769999999999643e-01 -2.178839999999999943e-01 -4.527990000000000070e-01 3.186209999999999876e-01 -3.223210000000000242e-01 -9.481799999999999951e-02 1.485740000000000116e-01 9.435599999999999543e-02 1.307949999999999946e-01 6.274640000000000217e-01 -9.537999999999999604e-03 1.371200000000000023e-02 1.375200000000000033e-02 4.713280000000000247e-01 -2.979729999999999879e-01 -2.800650000000000084e-01 4.585940000000000016e-01 -7.215329999999999799e-01 -3.425730000000000164e-01 -6.422579999999999956e-01 -2.289869999999999961e-01 -2.568600000000000050e-02 -2.072060000000000013e-01 -5.189169999999999616e-01 -6.127569999999999961e-01 5.896059999999999635e-01 2.826119999999999743e-01 -1.038799999999999946e+00 -5.916179999999999772e-01 1.620870000000000088e-01 8.609409999999999563e-01 -8.962759999999999616e-01 -1.390720000000000012e-01
-1.326160000000000116e-01 -2.270850000000000091e-01 -5.627999999999999670e-01 -1.140816000000000052e+00 1.128784000000000010e+00 5.017040000000000388e-01 -5.640840000000000298e-01 2.457000000000000017e-01 -2.236700000000000146e-02 3.344889999999999808e-01 3.554809999999999914e-01 -1.347004000000000090e+00 7.530179999999999652e-01 -4.679780000000000051e-01 -1.233090000000000019e-01 1.385409999999999975e-01 2.103119999999999989e-01 9.992280000000000051e-01 -2.815559999999999730e-01 3.999690000000000190e-01 6.677229999999999555e-01 -1.846639999999999948e-01 -2.701830000000000065e-01 3.734120000000000217e-01 8.457499999999999740e-02 1.677440000000000042e-01 7.013500000000000290e-02 3.280179999999999763e-01 -6.337850000000000428e-01 4.747500000000000331e-02 1.307619999999999894e-01 3.611500000000000266e-01 2.172070000000000112e-01 1.093623999999999929e+00 -1.213151000000000090e+00 -8.198550000000000004e-01 -4.745170000000000221e-01 4.420200000000000240e-01 -4.396959999999999757e-01 3.799790000000000112e-01 -3.473419999999999841e-01 -5.402499999999999664e-02 -7.226100000000000578e-02 -8.434999999999999443e-02 -7.308339999999999836e-01 -1.268730000000000135e-01 -1.616199999999999928e-02 4.252999999999999836e-02 -7.618979999999999642e-01 6.144199999999999662e-01 2.159220000000000028e-01 5.607990000000000475e-01 4.302010000000000001e-01 1.282971000000000084e+00 -2.632700000000000040e-01 -1.100646000000000013e+00 1.915769999999999973e-01 1.987520000000000120e-01 4.900999999999999975e-03 -5.099939999999999474e-01
3.935000000000000130e-03 -2.008800000000000169e-02 -1.959999999999999937e-04 -5.828999999999999980e-03 -1.684499999999999886e-02 -4.310999999999999728e-03 -2.461599999999999899e-02 3.812100000000000211e-02 -3.116400000000000073e-02 6.697999999999999961e-03 1.130800000000000034e-02 -6.705400000000000249e-02 6.225999999999999764e-03 4.064399999999999957e-02 5.087400000000000255e-02 2.327200000000000102e-02 -2.700999999999999842e-03 -3.631600000000000106e-02 2.013099999999999959e-02 -1.657399999999999846e-02 7.716499999999999748e-02 -1.633400000000000130e-02 -1.316900000000000015e-02 1.768810000000000104e-01 1.602599999999999858e-02 -4.015799999999999925e-02 6.598500000000000199e-02 -3.500000000000000073e-03 -1.546699999999999985e-02 9.972999999999999921e-02 4.562000000000000083e-03 5.773999999999999619e-03 6.359499999999999875e-02 4.111000000000000071e-03 2.668200000000000086e-02 5.883700000000000041e-02 -5.812000000000000326e-03 -7.063999999999999967e-03 -4.353300000000000225e-02 -1.794199999999999962e-02 -3.181500000000000300e-02 -3.778200000000000308e-02 -2.787200000000000094e-02 3.275600000000000039e-02 -3.976999999999999980e-02 1.442700000000000059e-02 2.857000000000000164e-03 -2.880900000000000127e-02 2.118000000000000091e-03 4.832000000000000357e-03 -7.249700000000000588e-02 -7.979999999999999897e-04 3.506000000000000002e-03 1.928200000000000053e-02 8.409999999999999507e-04 -8.329999999999999731e-04 -8.572699999999999765e-02 3.570000000000000040e-04 -1.765000000000000076e-03 -1.651900000000000035e-01
-7.342840000000000478e-01 6.089970000000000105e-01 3.603430000000000244e-01 -5.040029999999999788e-01 2.929030000000000244e-01 9.470779999999999754e-01 3.745180000000000176e-01 6.135289999999999910e-01 4.278120000000000256e-01 5.193919999999999648e-01 3.823989999999999889e-01 3.812169999999999725e-01 -1.690669999999999951e-01 -7.009490000000000443e-01 -5.469399999999999956e-02 2.351949999999999874e-01 -6.991159999999999597e-01 2.598099999999999854e-01 1.198604000000000003e+00 -5.436290000000000289e-01 -1.580055999999999905e+00 8.362800000000000233e-01 -2.655899999999999928e-01 -4.627970000000000139e-01 -5.242740000000000178e-01 -3.382789999999999964e-01 1.355369999999999908e-01 -5.125629999999999908e-01 -2.676149999999999918e-01 6.259499999999999786e-02 5.600570000000000270e-01 -3.969980000000000175e-01 -5.404820000000000180e-01 7.587310000000000443e-01 -5.542049999999999477e-01 -4.169180000000000108e-01 4.175050000000000150e-01 9.811039999999999761e-01 2.858180000000000165e-01 -2.845199999999999951e-01 -1.016399999999999942e-02 -9.328300000000000480e-01 3.323860000000000148e-01 -3.085590000000000277e-01 -6.267970000000000486e-01 -5.097899999999999654e-01 -6.227559999999999762e-01 -6.928499999999999659e-01 3.303630000000000178e-01 6.057700000000000307e-01 2.351800000000000002e-01 -9.776200000000000168e-02 3.837849999999999873e-01 2.644099999999999784e-01 -8.453859999999999708e-01 -6.792299999999999727e-02 6.220579999999999998e-01 -1.381380999999999970e+00 9.072989999999999666e-01 1.325566999999999940e+00
-3.989119999999999888e-01 -1.836510000000000087e-01 8.391300000000000148e-02 5.708509999999999973e-01 5.387589999999999879e-01 4.745619999999999838e-01 2.691259999999999764e-01 -6.021330000000000293e-01 -1.546915999999999958e+00 -6.004260000000000153e-01 7.369799999999999685e-01 -2.262659999999999949e-01 4.137719999999999732e-01 -5.574599999999999694e-02 -1.220369000000000037e+00 -6.096260000000000012e-01 6.221729999999999761e-01 -3.016909999999999870e-01 6.597790000000000044e-01 2.582119999999999971e-01 -6.824200000000000266e-01 -5.620359999999999800e-01 4.865389999999999993e-01 3.304059999999999775e-01 -1.175630000000000008e-01 -3.704500000000000015e-01 7.711599999999999566e-01 1.900779999999999970e-01 -2.413999999999999913e-03 -2.445559999999999956e-01 5.256990000000000274e-01 -2.560819999999999763e-01 1.074800000000000061e-01 -2.504520000000000080e-01 3.777690000000000214e-01 1.056119999999999975e-01 -7.214840000000000142e-01 5.539399999999999880e-02 1.461330000000000129e-01 -1.820039999999999991e-01 -5.604120000000000212e-01 -3.442819999999999769e-01 -5.629939999999999944e-01 -3.035200000000000051e-02 1.184245999999999910e+00 2.032400000000000040e-01 -2.039670000000000094e-01 5.069500000000000117e-01 5.569030000000000369e-01 -2.251920000000000033e-01 6.757159999999999833e-01 -7.492259999999999476e-01 3.240680000000000227e-01 3.343670000000000253e-01 7.067470000000000141e-01 -7.580649999999999888e-01 -2.923100000000000004e-02 6.585259999999999447e-01 -1.514300000000000090e-01 -1.248129999999999934e-01
-4.693979999999999819e-01 3.679499999999999993e-01 -2.868910000000000071e-01 1.451999999999999992e-02 -1.132468999999999948e+00 -1.110949999999999993e-01 4.587180000000000146e-01 7.594070000000000542e-01 6.323889999999999789e-01 3.044959999999999889e-01 -4.940910000000000024e-01 -7.807200000000000251e-02 4.910100000000000020e-01 5.063349999999999795e-01 -2.733160000000000034e-01 6.456070000000000420e-01 1.096349999999999963e-01 1.641799999999999926e-01 3.646200000000000135e-02 -6.376999999999999856e-03 2.557630000000000181e-01 -1.215867000000000031e+00 3.145640000000000103e-01 1.075437999999999894e+00 5.586410000000000542e-01 -1.505749999999999866e-01 5.744799999999999907e-01 -1.446399999999999943e-02 7.989669999999999828e-01 -1.529200000000000004e-01 -9.337509999999999977e-01 -4.633199999999999819e-02 -7.704140000000000432e-01 -3.585999999999999743e-01 -3.479499999999999954e-02 1.032431000000000099e+00 1.262220000000000009e-01 -9.941300000000000137e-02 -4.326090000000000213e-01 8.337660000000000071e-01 3.649060000000000081e-01 1.180299999999999926e-02 -7.165999999999999627e-03 -1.137480000000000019e-01 -3.612299999999999955e-01 5.168880000000000141e-01 -2.896320000000000006e-01 -6.543109999999999760e-01 -1.215867999999999949e+00 -3.935690000000000022e-01 8.389480000000000270e-01 -4.338500000000000134e-01 -3.355810000000000182e-01 3.874099999999999766e-02 -4.818959999999999910e-01 -6.232180000000000497e-01 -3.230600000000000138e-01 1.144532000000000105e+00 4.980339999999999767e-01 -1.180253999999999914e+00
-3.409429999999999961e-01 4.860320000000000196e-01 1.854490000000000027e-01 -6.896079999999999988e-01 -5.278370000000000006e-01 -3.794950000000000268e-01 -5.554499999999999715e-02 -2.441649999999999932e-01 2.325760000000000050e-01 -4.995850000000000013e-01 -5.730880000000000418e-01 1.166598000000000024e+00 -4.855479999999999796e-01 -7.115050000000000541e-01 3.161269999999999913e-01 1.966819999999999957e-01 3.369960000000000178e-01 3.701659999999999950e-01 -2.684070000000000067e-01 1.135756999999999906e+00 3.641019999999999812e-01 2.081010000000000082e-01 -2.353480000000000016e-01 -3.156550000000000189e-01 -1.170989999999999948e-01 9.870849999999999902e-01 5.266200000000000048e-02 8.619510000000000227e-01 2.390380000000000005e-01 -2.476230000000000098e-01 1.418399999999999939e-01 9.518739999999999979e-01 -4.721020000000000216e-01 5.474649999999999794e-01 -9.094759999999999511e-01 6.707799999999999874e-02 -1.445069999999999966e-01 -2.924950000000000050e-01 -5.669640000000000235e-01 2.298439999999999928e-01 -2.133940000000000003e-01 1.007957999999999910e+00 9.238629999999999898e-01 -7.311760000000000481e-01 -3.497000000000000108e-01 -7.164150000000000240e-01 -6.534940000000000193e-01 -6.528800000000000159e-01 -6.278730000000000144e-01 4.826710000000000167e-01 -8.558139999999999636e-01 -1.696030000000000038e-01 7.270300000000000373e-02 8.139699999999999713e-02 4.691520000000000135e-01 -4.092529999999999779e-01 2.312130000000000019e-01 5.362369999999999637e-01 8.090749999999999886e-01 -2.350929999999999964e-01
-2.088089999999999946e-01 -7.244040000000000479e-01 6.419359999999999511e-01 4.369509999999999783e-01 -2.504890000000000172e-01 -2.134999999999999953e-01 3.164440000000000031e-01 4.836489999999999956e-01 -3.355190000000000117e-01 1.313899999999999964e-02 -9.437750000000000306e-01 8.598100000000000187e-02 2.476980000000000015e-01 -1.088591000000000086e+00 9.362310000000000354e-01 3.333499999999999658e-02 2.424810000000000021e-01 -1.627500000000000058e-01 5.715449999999999697e-01 -4.390370000000000106e-01 4.819339999999999735e-01 -2.069350000000000078e-01 1.072656999999999972e+00 3.086399999999999907e-02 -4.210599999999999760e-02 -1.143649999999999944e-01 1.183870000000000061e-01 -9.656590000000000451e-01 -5.480110000000000259e-01 8.656099999999999905e-02 3.965310000000000223e-01 5.247709999999999875e-01 8.775619999999999532e-01 1.856589999999999907e-01 1.330025999999999931e+00 -7.000999999999999446e-01 3.700209999999999888e-01 -1.410171999999999981e+00 -8.010829999999999895e-01 6.995899999999999341e-02 -7.450900000000000578e-02 2.379300000000000026e-01 -6.657809999999999562e-01 4.583820000000000117e-01 -4.508179999999999965e-01 6.907199999999999451e-02 3.635289999999999910e-01 -3.541349999999999776e-01 -7.314990000000000103e-01 4.382139999999999924e-01 3.374030000000000085e-01 2.707530000000000214e-01 -3.378399999999999737e-01 1.179739999999999955e-01 1.189629999999999993e-01 1.020774999999999988e+00 -8.255430000000000268e-01 -2.792839999999999767e-01 -3.289999999999999956e-03 -1.093139999999999945e-01
1.195940000000000059e-01 1.816319999999999879e-01 -1.476480000000000015e-01 4.786400000000000099e-01 7.420689999999999786e-01 2.864079999999999959e-01 3.318100000000000216e-02 -6.099970000000000114e-01 -2.466029999999999889e-01 -1.049319999999999975e-01 -4.335200000000000164e-01 -4.036599999999999910e-02 3.096949999999999981e-01 -6.083819999999999784e-01 1.021870000000000001e-01 -1.439199999999999924e-01 7.487310000000000354e-01 2.598249999999999726e-01 1.612480000000000024e-01 -4.556799999999999740e-02 1.504050000000000109e-01 3.989670000000000161e-01 7.769089999999999607e-01 1.852099999999999927e-02 9.216000000000000580e-02 3.957740000000000147e-01 2.966829999999999745e-01 -4.224049999999999749e-01 1.160189999999999971e-01 -5.936860000000000470e-01 7.423000000000000431e-02 -6.178670000000000551e-01 2.364159999999999873e-01 -8.082000000000000642e-03 -8.032899999999999763e-02 -2.525499999999999967e-01 -7.476099999999999968e-01 5.121400000000000258e-02 1.182229999999999948e-01 1.022639999999999938e-01 3.455059999999999798e-01 -2.438609999999999944e-01 -1.060740000000000016e-01 1.404100000000000070e-01 -9.863600000000000145e-02 -2.812999999999999876e-02 1.141169999999999962e-01 3.647059999999999746e-01 -1.272399999999999920e-01 -4.663080000000000003e-01 -9.021099999999999952e-02 8.216700000000000392e-02 5.503600000000000159e-02 3.482549999999999812e-01 -7.680000000000000195e-04 -4.579259999999999997e-01 -2.640609999999999902e-01 -1.629819999999999880e-01 -3.475190000000000223e-01 -2.040079999999999949e-01
-6.579490000000000061e-01 -1.120410000000000017e-01 3.889399999999999802e-02 1.224240000000000050e-01 1.277999999999999969e-02 -5.851619999999999600e-01 -1.545200000000000046e-02 -3.399190000000000267e-01 4.737259999999999804e-01 -2.115710000000000091e-01 -1.339380000000000015e-01 -3.146229999999999860e-01 -2.484230000000000049e-01 -8.511279999999999957e-01 7.269050000000000233e-01 -2.476349999999999940e-01 5.020899999999999669e-02 4.155999999999999972e-02 -5.105799999999999922e-02 -9.075149999999999606e-01 3.514950000000000019e-01 -3.590289999999999870e-01 5.369920000000000249e-01 -2.245129999999999904e-01 1.570249999999999979e-01 4.418000000000000260e-01 2.198829999999999951e-01 -2.609150000000000080e-01 2.013759999999999994e-01 -1.288539999999999963e-01 4.234580000000000011e-01 -4.859299999999999731e-02 -3.088859999999999939e-01 2.339859999999999995e-01 4.005799999999999916e-01 5.890299999999999703e-02 3.520840000000000081e-01 3.205000000000000210e-02 1.411530000000000007e-01 -1.228300000000000052e-02 4.687680000000000180e-01 4.971470000000000056e-01 1.039429999999999937e-01 3.238510000000000000e-01 -3.900210000000000066e-01 1.028889999999999944e-01 2.877170000000000005e-01 -1.944379999999999997e-01 7.518900000000000583e-02 5.286300000000000027e-02 -3.879349999999999743e-01 -8.663769999999999527e-01 1.533920000000000006e-01 4.004229999999999734e-01 4.296119999999999939e-01 -6.999600000000000266e-01 -2.918720000000000203e-01 9.300829999999999931e-01 1.307159999999999989e-01 -1.237850000000000061e-01
1.098699999999999954e-01 -1.586930000000000007e-01 -2.605830000000000091e-01 -2.690899999999999889e-02 -4.477119999999999989e-01 -6.646849999999999703e-01 2.523929999999999785e-01 1.129156000000000049e+00 3.401040000000000174e-01 5.123400000000000176e-01 -8.729590000000000405e-01 -1.253890000000000005e-01 8.798639999999999795e-01 -3.066519999999999802e-01 3.429650000000000198e-01 -7.973080000000000167e-01 8.912699999999999789e-02 -8.504660000000000553e-01 4.145610000000000128e-01 2.536160000000000081e-01 -1.573279999999999956e-01 2.082799999999999929e-01 4.929479999999999973e-01 -2.768729999999999802e-01 -1.157689999999999969e-01 4.384739999999999749e-01 -9.364100000000000201e-02 7.081899999999999862e-01 -3.384269999999999778e-01 1.560259999999999980e-01 -5.698670000000000124e-01 -3.721740000000000048e-01 2.935740000000000016e-01 -7.211560000000000192e-01 6.486760000000000304e-01 2.024960000000000093e-01 2.872529999999999806e-01 -8.461299999999999377e-02 3.262789999999999857e-01 -4.854470000000000174e-01 -2.263850000000000029e-01 2.530359999999999832e-01 6.538099999999999468e-02 -4.930649999999999755e-01 -2.914450000000000096e-01 1.971749999999999892e-01 5.210350000000000259e-01 3.112190000000000234e-01 -5.388789999999999969e-01 -2.851599999999999968e-02 9.954699999999999660e-02 -1.518309999999999937e-01 -3.550949999999999940e-01 1.950220000000000009e-01 -3.845580000000000109e-01 1.148160000000000014e-01 3.324679999999999858e-01 1.564159999999999995e-01 -3.555000000000000000e-03 -1.323270000000000002e-01
2.709800000000000056e-02 -4.402400000000000063e-02 -3.476899999999999991e-01 -3.400899999999999757e-02 4.526330000000000076e-01 3.978799999999999698e-02 -2.313840000000000063e-01 2.117640000000000078e-01 1.790730000000000099e-01 4.728500000000000064e-02 -2.348179999999999990e-01 1.665230000000000044e-01 -4.679309999999999858e-01 -6.497709999999999875e-01 -1.027570000000000011e-01 1.735659999999999981e-01 -2.957230000000000136e-01 3.879599999999999715e-02 5.413390000000000146e-01 2.830799999999999983e-02 1.514770000000000005e-01 7.787389999999999590e-01 6.967800000000000382e-02 3.566899999999999932e-02 6.572529999999999761e-01 -3.251300000000000023e-02 -4.769079999999999986e-01 -2.133099999999999996e-01 -1.143860000000000016e-01 -1.005200000000000017e-02 -9.792299999999999616e-02 -5.352660000000000196e-01 -3.783159999999999856e-01 2.153200000000000114e-01 -1.249839999999999979e-01 4.431000000000000043e-03 -6.740599999999999370e-02 -1.007969999999999977e-01 4.657510000000000261e-01 -3.678350000000000231e-01 5.734080000000000288e-01 2.017609999999999959e-01 -5.886040000000000161e-01 4.587149999999999839e-01 3.396099999999999813e-02 -1.465579999999999938e-01 -1.467529999999999946e-01 -8.441500000000000392e-02 -1.747259999999999924e-01 3.861069999999999780e-01 1.557219999999999993e-01 -3.558669999999999889e-01 -3.780879999999999797e-01 -5.377420000000000533e-01 4.705250000000000266e-01 -1.902010000000000089e-01 -2.054600000000000037e-01 -1.655719999999999970e-01 6.667119999999999713e-01 6.703869999999999552e-01
-4.141399999999999942e-02 -4.905500000000000138e-02 -4.673000000000000070e-02 1.609500000000000167e-02 2.739600000000000021e-02 3.422700000000000048e-02 2.840000000000000163e-02 -1.461499999999999952e-02 1.284999999999999901e-03 -9.247000000000000011e-03 4.964999999999999969e-02 -2.926499999999999935e-02 1.763000000000000027e-03 4.301000000000000136e-03 -2.808899999999999939e-02 -7.542000000000000093e-03 -4.412000000000000123e-03 1.979699999999999863e-02 -9.698999999999999289e-03 4.977999999999999786e-03 2.495299999999999949e-02 -8.878999999999999740e-03 -2.221499999999999864e-02 5.935000000000000171e-03 4.015900000000000025e-02 -1.678699999999999984e-02 1.170810000000000045e-01 -2.934799999999999909e-02 -8.037000000000000741e-03 3.141200000000000242e-02 -2.674699999999999994e-02 -4.850000000000000253e-04 6.044499999999999873e-02 2.108399999999999858e-02 9.650000000000000374e-04 4.138499999999999818e-02 -4.909000000000000169e-03 5.529000000000000060e-03 -2.409000000000000030e-02 1.432499999999999919e-02 5.299999999999999807e-04 -4.554500000000000215e-02 1.696399999999999991e-02 1.094200000000000034e-02 -4.810500000000000193e-02 4.312999999999999994e-03 1.008099999999999968e-02 -2.761600000000000166e-02 -4.889999999999999599e-04 7.929999999999999766e-04 7.382999999999999806e-03 -5.450000000000000200e-04 3.354000000000000210e-03 -3.796900000000000275e-02 -3.530000000000000152e-04 -4.440000000000000045e-04 -3.466999999999999943e-02 -3.930000000000000333e-03 -2.471000000000000106e-03 -2.182399999999999965e-02
-8.512549999999999839e-01 -2.304789999999999894e-01 1.238240000000000035e-01 -5.270199999999999885e-02 -6.469470000000000498e-01 1.895759999999999945e-01 3.185799999999999743e-02 1.030930000000000041e-01 3.831499999999999906e-01 -4.275579999999999936e-01 3.919309999999999738e-01 -7.870030000000000081e-01 9.699499999999999789e-02 -5.101269999999999971e-01 3.681199999999999750e-02 -4.697339999999999849e-01 7.529559999999999587e-01 3.090200000000000169e-01 6.071520000000000250e-01 -1.170690000000000064e-01 2.626140000000000141e-01 5.907500000000000251e-02 2.855249999999999733e-01 6.395199999999999496e-02 1.718780000000000030e-01 4.846639999999999837e-01 2.514359999999999928e-01 1.076780000000000070e+00 -8.056699999999999973e-02 -3.200939999999999896e-01 8.933399999999999674e-02 -1.348000000000000023e-03 -2.878009999999999735e-01 -2.283910000000000107e-01 -2.419389999999999874e-01 3.160499999999999976e-01 5.063200000000000339e-02 -6.606419999999999515e-01 -2.832930000000000170e-01 -6.258099999999999774e-02 -4.338319999999999954e-01 -7.747530000000000250e-01 3.016559999999999797e-01 3.165629999999999833e-01 -4.223890000000000144e-01 4.053229999999999889e-01 2.160839999999999983e-01 6.015700000000000491e-01 2.113960000000000006e-01 2.895469999999999988e-01 -1.374279999999999946e-01 2.006809999999999983e-01 -3.096200000000000063e-01 1.865400000000000114e-01 -5.092870000000000452e-01 9.259499999999999675e-02 -1.273489999999999900e-01 -7.012519999999999865e-01 2.996119999999999894e-01 4.155650000000000177e-01