8.162021679330742074e+00 -4.695011181145538097e-18 -1.326939863954938591e-17 -4.004689681451713668e+00 7.285108986866577929e+00 2.219607936740383566e-17 4.572143686443865818e-01 -5.402903335996093320e-02 1.067942431531125713e+01
8.162023327748457291e+00 1.295713033787071053e-17 -9.686888270808719719e-18 -4.004690340314030372e+00 7.285110707489787174e+00 9.050769521514182732e-18 4.572144923814340789e-01 -5.402950509580718708e-02 1.067942624890525316e+01
8.162026352516358330e+00 -2.319077797555404934e-18 -2.347567668309357660e-17 -4.004691514804461505e+00 7.285113915187245937e+00 1.893689447967851179e-17 4.572147380408858597e-01 -5.403041886432614210e-02 1.067942975512686665e+01
8.162030825632557551e+00 -2.253508907740247539e-18 -6.212282210200788608e-17 -4.004693253753628390e+00 7.285118694541997009e+00 2.373946012254648188e-17 4.572151085442096585e-01 -5.403185570653094849e-02 1.067943488373110306e+01
8.162036921178522419e+00 2.792316702273416872e-18 -3.928102473951661388e-18 -4.004695649299449656e+00 7.285125236071367638e+00 -8.494764354013481046e-18 4.572156163940977458e-01 -5.403393008791625846e-02 1.067944179817508754e+01
8.162044425061113273e+00 -8.416476382046656065e-18 -1.339757779798315785e-17 -4.004698643307519568e+00 7.285133315554197964e+00 -3.537592683290808427e-18 4.572162457616445463e-01 -5.403663885315701521e-02 1.067945021777136461e+01
8.162052960217458519e+00 1.019339377118654786e-17 5.195831985589369224e-17 -4.004702088873558274e+00 7.285142538699272308e+00 4.066957130466955856e-18 4.572169757628417597e-01 -5.403988781968727118e-02 1.067945968607864771e+01
8.162062614647169312e+00 1.113957558595641590e-18 1.689725848371857619e-17 -4.004706028904515769e+00 7.285153014512398606e+00 -3.358340734761620555e-17 4.572178212215572413e-01 -5.404376498048168997e-02 1.067947027058478682e+01
8.162073722451179236e+00 1.461149022080399343e-18 -4.999430187487652041e-18 -4.004710620269481325e+00 7.285165109939464756e+00 1.793060246252184574e-17 4.572188241377521112e-01 -5.404846987603584285e-02 1.067948229894471091e+01
8.162086052551616788e+00 -3.698914689750037830e-18 5.486203167784324509e-18 -4.004715791052261054e+00 7.285178578716122288e+00 1.250938507665562816e-17 4.572199740067413032e-01 -5.405397672802334658e-02 1.067949547840512459e+01
8.055676609000000710e+00 0.000000000000000000e+00 0.000000000000000000e+00 -4.003637153999999754e+00 7.260321013999999629e+00 0.000000000000000000e+00 6.169336930000000052e-01 -3.572475949999999734e-01 1.077395581200000052e+01
8.055677427999999196e+00 0.000000000000000000e+00 0.000000000000000000e+00 -4.003637530999999861e+00 7.260322634999999636e+00 0.000000000000000000e+00 6.169344869999999759e-01 -3.572493409999999980e-01 1.077395794999999978e+01
8.055678926000000573e+00 0.000000000000000000e+00 0.000000000000000000e+00 -4.003638209000000003e+00 7.260325638000000303e+00 0.000000000000000000e+00 6.169360520000000125e-01 -3.572524910000000054e-01 1.077396191699999939e+01
8.055681166999999476e+00 0.000000000000000000e+00 0.000000000000000000e+00 -4.003639218000000000e+00 7.260330084999999656e+00 0.000000000000000000e+00 6.169384020000000524e-01 -3.572570170000000100e-01 1.077396782699999989e+01
8.055684287000000054e+00 0.000000000000000000e+00 0.000000000000000000e+00 -4.003640619999999650e+00 7.260336147000000295e+00 0.000000000000000000e+00 6.169415969999999527e-01 -3.572629820000000067e-01 1.077397595499999916e+01
8.055688230999999533e+00 0.000000000000000000e+00 0.000000000000000000e+00 -4.003642388000000274e+00 7.260343640000000320e+00 0.000000000000000000e+00 6.169455209999999967e-01 -3.572701030000000055e-01 1.077398609399999962e+01
8.055692811000000120e+00 0.000000000000000000e+00 0.000000000000000000e+00 -4.003644431999999753e+00 7.260352175000000408e+00 0.000000000000000000e+00 6.169499800000000089e-01 -3.572779309999999930e-01 1.077399774300000068e+01
8.055698058000000827e+00 0.000000000000000000e+00 0.000000000000000000e+00 -4.003646761999999804e+00 7.260361776999999961e+00 0.000000000000000000e+00 6.169550000000000312e-01 -3.572864179999999945e-01 1.077401096300000027e+01
8.055704191000000236e+00 0.000000000000000000e+00 0.000000000000000000e+00 -4.003649465999999713e+00 7.260372779999999970e+00 0.000000000000000000e+00 6.169607470000000315e-01 -3.572957520000000220e-01 1.077402624700000011e+01
8.055711175000000779e+00 0.000000000000000000e+00 0.000000000000000000e+00 -4.003652523999999602e+00 7.260385042000000233e+00 0.000000000000000000e+00 6.169671399999999695e-01 -3.573056920000000081e-01 1.077404344500000022e+01
8.148562368000000333e+00 0.000000000000000000e+00 0.000000000000000000e+00 -4.034426144000000214e+00 7.492911134999999945e+00 0.000000000000000000e+00 7.063378639999999820e-01 2.484256340000000063e-01 1.094730420299999984e+01
8.148564324000000525e+00 0.000000000000000000e+00 0.000000000000000000e+00 -4.034427356000000131e+00 7.492914219000000209e+00 0.000000000000000000e+00 7.063384320000000161e-01 2.484257699999999902e-01 1.094730783900000048e+01
8.148567915999999300e+00 0.000000000000000000e+00 0.000000000000000000e+00 -4.034429631000000072e+00 7.492919978999999842e+00 0.000000000000000000e+00 7.063397380000000503e-01 2.484260239999999953e-01 1.094731466800000064e+01
8.148573214000000675e+00 0.000000000000000000e+00 0.000000000000000000e+00 -4.034432995999999605e+00 7.492928540000000304e+00 0.000000000000000000e+00 7.063419159999999586e-01 2.484264089999999869e-01 1.094732482899999937e+01
8.148580422000000212e+00 0.000000000000000000e+00 0.000000000000000000e+00 -4.034437542000000043e+00 7.492940228000000147e+00 0.000000000000000000e+00 7.063451490000000055e-01 2.484269440000000106e-01 1.094733869300000073e+01
8.148589296999999121e+00 0.000000000000000000e+00 0.000000000000000000e+00 -4.034443085000000373e+00 7.492954662999999904e+00 0.000000000000000000e+00 7.063494390000000234e-01 2.484276199999999879e-01 1.094735579800000025e+01
8.148599387000000860e+00 0.000000000000000000e+00 0.000000000000000000e+00 -4.034449326999999919e+00 7.492971128999999841e+00 0.000000000000000000e+00 7.063546750000000429e-01 2.484284109999999879e-01 1.094737527999999926e+01
8.148610785000000689e+00 0.000000000000000000e+00 0.000000000000000000e+00 -4.034456309000000296e+00 7.492989792999999565e+00 0.000000000000000000e+00 7.063610080000000124e-01 2.484293300000000038e-01 1.094739732799999921e+01
8.148623885999999317e+00 0.000000000000000000e+00 0.000000000000000000e+00 -4.034464232999999567e+00 7.493011309999999980e+00 0.000000000000000000e+00 7.063687619999999834e-01 2.484304190000000134e-01 1.094742268899999971e+01
8.148638445999999647e+00 0.000000000000000000e+00 0.000000000000000000e+00 -4.034472903000000166e+00 7.493035283000000213e+00 0.000000000000000000e+00 7.063778960000000051e-01 2.484316659999999954e-01 1.094745086600000050e+01
8.091313506000000544e+00 0.000000000000000000e+00 0.000000000000000000e+00 -3.890374963000000186e+00 7.453159219999999863e+00 0.000000000000000000e+00 4.602683750000000074e-01 2.040333910000000084e-01 1.047682843800000008e+01
8.091314656999999855e+00 0.000000000000000000e+00 0.000000000000000000e+00 -3.890375123000000102e+00 7.453161664999999658e+00 0.000000000000000000e+00 4.602686650000000212e-01 2.040336560000000077e-01 1.047682942199999978e+01
8.091316704000000470e+00 0.000000000000000000e+00 0.000000000000000000e+00 -3.890375343000000097e+00 7.453166234000000223e+00 0.000000000000000000e+00 4.602691720000000042e-01 2.040341179999999865e-01 1.047683119699999921e+01
8.091319683000000040e+00 0.000000000000000000e+00 0.000000000000000000e+00 -3.890375607000000180e+00 7.453173042000000414e+00 0.000000000000000000e+00 4.602699490000000115e-01 2.040347349999999949e-01 1.047683379899999956e+01
8.091323710999999363e+00 0.000000000000000000e+00 0.000000000000000000e+00 -3.890375908000000216e+00 7.453182374999999915e+00 0.000000000000000000e+00 4.602710859999999959e-01 2.040354679999999976e-01 1.047683733400000072e+01
8.091328669999999335e+00 0.000000000000000000e+00 0.000000000000000000e+00 -3.890376219999999829e+00 7.453193985999999605e+00 0.000000000000000000e+00 4.602726030000000024e-01 2.040362290000000134e-01 1.047684169599999926e+01
8.091334282000000044e+00 0.000000000000000000e+00 0.000000000000000000e+00 -3.890376497000000100e+00 7.453207306000000365e+00 0.000000000000000000e+00 4.602744489999999744e-01 2.040369330000000037e-01 1.047684664500000018e+01
8.091340568999999761e+00 0.000000000000000000e+00 0.000000000000000000e+00 -3.890376719999999899e+00 7.453222446999999917e+00 0.000000000000000000e+00 4.602766600000000041e-01 2.040375399999999895e-01 1.047685219699999948e+01
8.091347756999999419e+00 0.000000000000000000e+00 0.000000000000000000e+00 -3.890376879000000176e+00 7.453239993000000396e+00 0.000000000000000000e+00 4.602793640000000241e-01 2.040380039999999950e-01 1.047685854799999916e+01
8.091355744999999544e+00 0.000000000000000000e+00 0.000000000000000000e+00 -3.890376951999999999e+00 7.453259745999999630e+00 0.000000000000000000e+00 4.602825819999999957e-01 2.040382420000000085e-01 1.047686560400000033e+01
8.096607624000000669e+00 0.000000000000000000e+00 0.000000000000000000e+00 -4.101341339000000197e+00 7.234493443999999940e+00 0.000000000000000000e+00 6.430631310000000100e-01 -4.181626399999999882e-02 1.071039881999999999e+01
8.096608690000000053e+00 0.000000000000000000e+00 0.000000000000000000e+00 -4.101342211999999599e+00 7.234494727999999597e+00 0.000000000000000000e+00 6.430638800000000321e-01 -4.181663900000000267e-02 1.071040059399999933e+01
8.096610583000000361e+00 0.000000000000000000e+00 0.000000000000000000e+00 -4.101343755000000257e+00 7.234497078999999609e+00 0.000000000000000000e+00 6.430653579999999758e-01 -4.181738799999999701e-02 1.071040382600000029e+01
8.096613315000000810e+00 0.000000000000000000e+00 0.000000000000000000e+00 -4.101345983999999945e+00 7.234500525999999709e+00 0.000000000000000000e+00 6.430676090000000400e-01 -4.181856600000000146e-02 1.071040856199999958e+01
8.096616978000000131e+00 0.000000000000000000e+00 0.000000000000000000e+00 -4.101348976999999785e+00 7.234505183999999645e+00 0.000000000000000000e+00 6.430707359999999762e-01 -4.182026300000000335e-02 1.071041496500000001e+01
8.096621431999999174e+00 0.000000000000000000e+00 0.000000000000000000e+00 -4.101352623000000364e+00 7.234510886999999890e+00 0.000000000000000000e+00 6.430746670000000442e-01 -4.182247099999999995e-02 1.071042281299999921e+01
8.096626419999999769e+00 0.000000000000000000e+00 0.000000000000000000e+00 -4.101356713999999570e+00 7.234517325999999748e+00 0.000000000000000000e+00 6.430792370000000258e-01 -4.182511299999999710e-02 1.071043167800000084e+01
8.096631939999999972e+00 0.000000000000000000e+00 0.000000000000000000e+00 -4.101361247999999904e+00 7.234524519999999903e+00 0.000000000000000000e+00 6.430845109999999698e-01 -4.182823599999999781e-02 1.071044157999999946e+01
8.096638157999999308e+00 0.000000000000000000e+00 0.000000000000000000e+00 -4.101366361000000182e+00 7.234532696999999679e+00 0.000000000000000000e+00 6.430907089999999826e-01 -4.183198999999999945e-02 1.071045283199999965e+01
8.096644956000000448e+00 0.000000000000000000e+00 0.000000000000000000e+00 -4.101371956999999568e+00 7.234541713999999679e+00 0.000000000000000000e+00 6.430977850000000329e-01 -4.183636400000000088e-02 1.071046523599999922e+01
