2.204886303925579050e+00 1.291083480144403550e+00 2.013232860391369616e+00 2.025460384583977480e-01 4.933641942802622360e+00 2.013235271254598224e+00 6.285894622672320686e+00 1.291087498648962884e+00 2.013230924780258668e+00 4.283554357205139773e+00 4.933645961307181693e+00 2.013233335643486832e+00 3.022883723622147301e-01 2.580737662282844624e+00 8.659062028569231018e+00 -1.700052165704095675e+00 6.223286149970880921e+00 8.659054418172079437e+00 4.383296636156885029e+00 2.580731680966382058e+00 8.659060069298062601e+00 2.380956370689704560e+00 6.223290143624600645e+00 8.659062480161290765e+00 4.246565911401996907e+00 6.772004388732653979e+00 2.157892036687784551e-02 6.248916391996420572e+00 3.129445846799664643e+00 2.158628932424909788e-02 1.655575926552551314e-01 6.772000370228094646e+00 2.158085597798885952e-02 2.167907910554692119e+00 3.129451852966967262e+00 2.157825099509521824e-02 2.295895366336071053e+00 1.271251809524709842e+00 7.330718817081767646e+00 2.935551008688897512e-01 4.913810272182929317e+00 7.330721227944996699e+00 6.376903685082813134e+00 1.271255828029269175e+00 7.330716881470657142e+00 4.374563364663560883e+00 4.913804290866465863e+00 7.330719268673827393e+00 1.794607234932149853e-01 2.547080549565012841e+00 3.334253912849302726e+00 -1.822879541973966289e+00 6.189639012223231873e+00 3.334256323712530445e+00 4.260469042239957815e+00 2.547084568069572175e+00 3.334251977238191333e+00 2.258128721820704676e+00 6.189633030906768418e+00 3.334254364441362917e+00
2.204488943996103067e+00 1.287516452281224799e+00 2.012872558013574675e+00 2.043781533737033529e-01 4.930634431052666855e+00 2.016358671626032439e+00 6.290933528532439034e+00 1.295855142743019162e+00 2.011012570103141606e+00 4.284519024222181116e+00 4.932805964196827375e+00 2.006758698937767260e+00 3.011617269316084200e-01 2.578772482846988900e+00 8.663852815788294137e+00 -1.697410640302320806e+00 6.227031649250688083e+00 8.659076239571904310e+00 4.374980398358745859e+00 2.580321506115001995e+00 8.669992673973672126e+00 2.377713019356585633e+00 6.224088505591782727e+00 8.654613987494903071e+00 4.244490521142015638e+00 6.768714095692144994e+00 1.804506619660954658e-02 6.244045955254966529e+00 3.131490288960293356e+00 1.835659858070275846e-02 1.635063892410291153e-01 6.769390768913483569e+00 1.347707038911447400e-02 2.167392177571299872e+00 3.132224812127203606e+00 2.154635926180257025e-02 2.297586899880936340e+00 1.271828621495614264e+00 7.336594844860936604e+00 3.072351596861475631e-01 4.903828298070743941e+00 7.333519351122844476e+00 6.383942187765171639e+00 1.278775567364664356e+00 7.331442551816332198e+00 4.365519867552134059e+00 4.919496499937658918e+00 7.329699998909143588e+00 1.759011580959102816e-01 2.552752111631872989e+00 3.329224273211333074e+00 -1.823598043018712866e+00 6.183015483728262929e+00 3.337366248237503275e+00 4.265066901953296075e+00 2.543160306670452897e+00 3.329571030829399536e+00 2.257760842590274653e+00 6.192492430255383873e+00 3.339610762678161926e+00
2.204081309744725381e+00 1.283859455746060529e+00 2.012522257895649869e+00 2.062724277543584450e-01 4.927586320367417727e+00 2.019590643639506133e+00 6.296112242984408525e+00 1.300752121903695713e+00 2.008751483485418099e+00 4.285500421768435153e+00 4.931966231032965275e+00 2.000133662001882140e+00 3.000075339937433028e-01 2.576737145986843114e+00 8.668774059193061987e+00 -1.694679025132304284e+00 6.230836683710003321e+00 8.659086244512776531e+00 4.366460035181675359e+00 2.579901804267904719e+00 8.681199763212251952e+00 2.374386969055148455e+00 6.224907626652781190e+00 8.650037314758888485e+00 4.242351875173268283e+00 6.765304429328287128e+00 1.439226267567931400e-02 6.239042994626069927e+00 3.133545736331586617e+00 1.500979098757524235e-02 1.613893183532183473e-01 6.766662092703096931e+00 5.134364268219364022e-03 2.166856234309478157e+00 3.135037929007963520e+00 2.149500210768082176e-02 2.299305613009225535e+00 1.272444529508236277e+00 7.342790454752799789e+00 3.212487677326529290e-01 4.893593961811792958e+00 7.336539640235676174e+00 6.391135834304344066e+00 1.286524039522177754e+00 7.332345456250847882e+00 4.356230360032019355e+00 4.925349719552712280e+00 7.328826517938415996e+00 1.722662329129084902e-01 2.558594772721883182e+00 3.323906629509657762e+00 -1.824329324299176269e+00 6.176242236531601648e+00 3.340386056443962914e+00 4.269777980201761025e+00 2.539156114495261463e+00 3.324597351019443092e+00 2.257392587690302044e+00 6.195441927710771068e+00 3.344927382635435098e+00
2.203674875513908837e+00 1.280262358692704439e+00 2.012212090472411230e+00 2.081266080856081779e-01 4.924638499864319563e+00 2.022793731318365928e+00 6.301201738355578286e+00 1.305589468139274567e+00 2.006542203525371715e+00 4.286454820434796531e+00 4.931156337748051399e+00 1.993639319199566717e+00 2.988920791859192572e-01 2.574711739101918084e+00 8.673634469939962344e+00 -1.691948286161581105e+00 6.234561767815070432e+00 8.659076065790939580e+00 4.358105928305978871e+00 2.579481598898422323e+00 8.692233191654990421e+00 2.371131933111063184e+00 6.225716241661859662e+00 8.645509082985727289e+00 4.240244146390761415e+00 6.761904500605827373e+00 1.077882115708619741e-02 6.234100449481300821e+00 3.135520759917429512e+00 1.170147870483037242e-02 6.164921706377719524e-01 6.709882061327176572e+00 1.067633882757671238e+01 2.166300454090494654e+00 3.137761082045914307e+00 2.147386097952836206e-02 2.300995476262203354e+00 1.273070475536435930e+00 7.349036729982937999e+00 3.350156582882010681e-01 4.883550733188137372e+00 7.339665800135542817e+00 6.398182723448936571e+00 1.294182906843851066e+00 7.333421374249045499e+00 4.347084401958028366e+00 4.931101706276535879e+00 7.328139706870348213e+00 1.686993264310158169e-01 2.564357227757303903e+00 3.318517289258953618e+00 -1.825054302555396024e+00 6.169589429068808251e+00 3.343205979587025478e+00 4.274407613842145182e+00 2.535242579764411364e+00 3.319535648637892411e+00 2.257038613032646968e+00 6.198381962386191546e+00 3.349983606832301231e+00
2.203289856692677962e+00 1.276765051590153410e+00 2.011941714124231062e+00 2.099499898096893746e-01 4.921861038655209519e+00 2.025917893041762952e+00 6.306152023547641150e+00 1.310287404307145076e+00 2.004405623724903496e+00 4.287364185614745971e+00 4.930376169040196821e+00 1.987366082423797531e+00 2.978341084746961576e-01 2.572706304710788316e+00 8.678373649735902973e+00 -1.689248907550449541e+00 6.238117069383523727e+00 8.659046142249474443e+00 4.350054073956343359e+00 2.579090601129763627e+00 8.702900025561589814e+00 2.367988992525520864e+00 6.226514010584516257e+00 8.641078406898799358e+00 4.238189294593460055e+00 6.758594024232610131e+00 7.274475970020524707e-03 6.229279393722626068e+00 3.137414907364898475e+00 8.480341217133086432e-03 6.144230881958945290e-01 6.707142248918978922e+00 1.066836513792332930e+01 2.165725163091694938e+00 3.140374221361931006e+00 2.150288252522697049e-02 2.302634645012187065e+00 1.273686769148440812e+00 7.355254077276039304e+00 3.483350749124102808e-01 4.873829874353780234e+00 7.342832509327881674e+00 6.404961684390597654e+00 1.301652899287378151e+00 7.334642688438552049e+00 4.338232171182001551e+00 4.936671571667566205e+00 7.327666100451819098e+00 1.652819916248517707e-01 2.569928795727961734e+00 3.313154225195795277e+00 -1.825763897322521423e+00 6.163167180328583683e+00 3.345756075426642440e+00 4.278877459756968982e+00 2.531479987585994351e+00 3.314447792111886226e+00 2.256726679522386814e+00 6.201262595968915825e+00 3.354688683092474921e+00
2.202905053080569164e+00 1.273227695290209738e+00 2.011691238773504864e+00 2.117944584446939116e-01 4.919163392219047637e+00 2.029071802308657801e+00 6.311152243070920598e+00 1.315015092829854959e+00 2.002258029178708654e+00 4.288272952200779642e+00 4.929606074687854722e+00 1.981062877857194593e+00 2.967676607235221753e-01 2.570660724907750883e+00 8.683192934022912368e+00 -1.686490580760101166e+00 6.241642142428149853e+00 8.658974851786577887e+00 4.341983802197398212e+00 2.578709536690194870e+00 8.713637302765045334e+00 2.364834421932430431e+00 6.227332030830039500e+00 8.636568016570107531e+00 4.236103304395583358e+00 6.755233811811173439e+00 3.730677139805552937e-03 6.224377104746849021e+00 3.139279615556444192e+00 5.210888125206110562e-03 6.122819488815617328e-01 6.704302991101919851e+00 1.066032275434358745e+01 2.165071523238321749e+00 3.142967597811960445e+00 2.161358060595728117e-02 2.304288600934403242e+00 1.274342484459056291e+00 7.361681251480975519e+00 3.616975253258067902e-01 4.864068424308801930e+00 7.346148217788371682e+00 6.411725552128657135e+00 1.309222500853269855e+00 7.336064627573833263e+00 4.329343867099185950e+00 4.942241206335540760e+00 7.327373323313730147e+00 1.618911685700127057e-01 2.575540621514107009e+00 3.307620643766416624e+00 -1.826496917437329781e+00 6.156715412887614924e+00 3.348156572952347698e+00 4.283342244342931870e+00 2.527707966865979650e+00 3.309129967977916031e+00 2.256430934561749702e+00 6.204203591314708888e+00 3.359203512794433966e+00
2.202519915622298097e+00 1.269550292242999978e+00 2.011460426892076825e+00 2.137214112809449340e-01 4.916485037208613740e+00 2.032333988930927759e+00 6.316331282884728004e+00 1.319892022974027190e+00 2.000016890313999429e+00 4.289177691570851714e+00 4.928816428364295454e+00 1.974579667553874929e+00 2.956949097039462959e-01 2.568494706970814612e+00 8.688212103467437331e+00 -1.683562511449495647e+00 6.245206341637023151e+00 8.658879956952779011e+00 4.333710548758229919e+00 2.578328822081298544e+00 8.724699075567391660e+00 2.361575691454735448e+00 6.228221118144181112e+00 8.631850018225115662e+00 4.233934226136481627e+00 6.751744310295920037e+00 7.833726739511171432e-05 6.219262421906635474e+00 3.141175764072034582e+00 1.826106920066046654e-03 6.100241903225941398e-01 6.701284984118688115e+00 1.065202240101599784e+01 2.164320142296109584e+00 3.145611293866663161e+00 2.181655219875785340e-02 2.306020867472196922e+00 1.275046900302365449e+00 7.368476930242239931e+00 3.754538334734565663e-01 4.853994213108092204e+00 7.349714635660572704e+00 6.418656687487716006e+00 1.317090581847525366e+00 7.337743728856830572e+00 4.320200861405368187e+00 4.947971757929695791e+00 7.327286537398576272e+00 1.584444906183767876e-01 2.581313487810513063e+00 3.301778603486340113e+00 -1.827263422673612858e+00 6.150064086627275550e+00 3.350447275489726096e+00 4.287928666636638297e+00 2.523846135587199058e+00 3.303449185187703030e+00 2.256154158242594132e+00 6.207274675099785810e+00 3.363638231901507236e+00
2.202145371359768955e+00 1.265822735943388011e+00 2.011269269657233849e+00 2.156895035288653451e-01 4.913936412114169983e+00 2.035615608106302155e+00 6.321540152331395213e+00 1.324778814275572092e+00 1.997765124685228821e+00 4.290072433282837494e+00 4.928026836188911020e+00 1.968096676103230802e+00 2.946334594541953900e-01 2.566288459819231704e+00 8.693300944167795308e+00 -1.680555935694896474e+00 6.248700229379122284e+00 8.658733167303282130e+00 4.325487284448033876e+00 2.577987858005153399e+00 8.735749857164888610e+00 2.358315494064685769e+00 6.229160401866408847e+00 8.627052158598205622e+00 4.688953065661610076e+00 6.694193841353422769e+00 1.067588381847650503e+01 6.671305174230129253e+00 3.089001158348992249e+00 1.067787978071531185e+01 6.076854115608670837e-01 6.698157462299119125e+00 1.064370353569295347e+01 2.163471506000986810e+00 3.148235211493553454e+00 2.215162373195862094e-02 2.307756943564801766e+00 1.275770892046220517e+00 7.375442615859473250e+00 3.891825978359976790e-01 4.843929890331269306e+00 7.353391705022718661e+00 6.425512852861338331e+00 1.325038573736970537e+00 7.339634711783881826e+00 4.311092035822082558e+00 4.953671648538668038e+00 7.327398980247739502e+00 1.550548030863848625e-01 2.587056350571908414e+00 3.295805217212540050e+00 -1.828053840778400829e+00 6.143413315896298244e+00 3.352558457802544911e+00 4.292480580661093725e+00 2.519994988755045018e+00 3.297559130432214047e+00 2.255922365340615077e+00 6.210386081908628952e+00 3.367832015554160563e+00
2.201791969660054971e+00 1.262184994734601107e+00 2.011107882438760708e+00 2.176165306875019745e-01 4.911628273885487062e+00 2.038788692371087841e+00 6.326599051022368414e+00 1.329506325491452756e+00 1.995556237238402142e+00 4.290922303476559563e+00 4.927256944302622621e+00 1.961844765227110932e+00 2.936100956495696912e-01 2.564092218905437370e+00 8.698298958858636354e+00 -1.677571106483474184e+00 6.251994304557491944e+00 8.658556346959493055e+00 4.317606099209259973e+00 2.577685908307318474e+00 8.746423199570489970e+00 2.355177608161934000e+00 6.230128783904644862e+00 8.622351732165387972e+00 4.686797309066040640e+00 6.690793960970567333e+00 1.067236144340937720e+01 6.666211840964680668e+00 3.090786976589150914e+00 1.067458428247345026e+01 6.053325697513060044e-01 6.695039378732730917e+00 1.063565506441969788e+01 2.162525337495852629e+00 3.150749327414581469e+00 2.262857894387520358e-02 2.309471338807101759e+00 1.276505191648450666e+00 7.382328779722770129e+00 4.024025965732945243e-01 4.834188412384917477e+00 7.357050645199777250e+00 6.432051047219204953e+00 1.332787963234765005e+00 7.341672156506504621e+00 4.302326376641322447e+00 4.959129171539064629e+00 7.327713399898130753e+00 1.518658151883759133e-01 2.592577905307212660e+00 3.289916933083575135e+00 -1.828838656168217280e+00 6.136993132925137040e+00 3.354410028668909138e+00 4.296832989173350548e+00 2.516304977405920518e+00 3.291653814305782078e+00 2.255731959700282285e+00 6.213438162176481150e+00 3.371644659108620434e+00
2.201459160805318671e+00 1.258537070154033266e+00 2.010976029010401955e+00 2.195638362325189330e-01 4.909530122371486449e+00 2.041921847732149686e+00 6.331637297388587271e+00 1.334153971544074668e+00 1.993337598985911008e+00 4.291723764777962025e+00 4.926497150179713458e+00 1.955663950608906632e+00 2.926271543459282309e-01 2.561855686130734888e+00 8.703326000706802290e+00 -1.674527987681127650e+00 6.255138155021861657e+00 8.658337874740295703e+00 4.309902040807535251e+00 2.577423325704015777e+00 8.756952750589665158e+00 2.352069173404983005e+00 6.231157100603005539e+00 8.617610804354230325e+00 4.684632644832499082e+00 6.687434034338429534e+00 1.066887937175417278e+01 6.661098672592721925e+00 3.092522854247394370e+00 1.067130909729640464e+01 6.029216420582474978e-01 6.691831349551278230e+00 1.062771766077743330e+01 2.161452899695338381e+00 3.153223704171285835e+00 2.328822773265220095e-02 2.311187802276684078e+00 1.277259266884364752e+00 7.389304969526261146e+00 4.154144504643003111e-01 4.824577950476574451e+00 7.360764454540079882e+00 6.438423526955777021e+00 1.340517780787375601e+00 7.343913208694342387e+00 4.293744963241556079e+00 4.964455145248110490e+00 7.328253537239096893e+00 1.487954295823138429e-01 2.597968883709005361e+00 3.283995735322323029e+00 -1.829647815170794445e+00 6.130653604029508763e+00 3.356042277257654138e+00 4.301082487735167881e+00 2.512675881714447446e+00 3.285600854341315102e+00 2.255594901754315540e+00 6.216510685716730045e+00 3.375146118088765856e+00
2.202170000000000183e+00 1.223389999999999977e+00 2.026689999999999880e+00 1.959700000000000053e-01 4.860249999999999737e+00 2.031579999999999941e+00 6.218469999999999942e+00 1.229999999999999982e+00 2.028979999999999784e+00 4.224149999999999849e+00 4.863590000000000302e+00 2.039079999999999782e+00 4.149399999999999755e-01 2.325439999999999952e+00 8.736380000000000479e+00 -1.593210000000000015e+00 5.955799999999999983e+00 8.730480000000000018e+00 4.443570000000000242e+00 2.327910000000000146e+00 8.736069999999999780e+00 2.433129999999999793e+00 5.952569999999999695e+00 8.739440000000000097e+00 4.142830000000000013e+00 6.747189999999999799e+00 2.335999999999999882e-02 6.144860000000000433e+00 3.117869999999999919e+00 1.914000000000000076e-02 1.132200000000000012e-01 6.744720000000000049e+00 1.585999999999999910e-02 2.126040000000000152e+00 3.121080000000000076e+00 2.597999999999999962e-02 2.366820000000000146e+00 1.064100000000000046e+00 7.397850000000000037e+00 3.672099999999999809e-01 4.687100000000000044e+00 7.397949999999999804e+00 6.399530000000000385e+00 1.054890000000000105e+00 7.392129999999999868e+00 4.395450000000000301e+00 4.689680000000000071e+00 7.398229999999999862e+00 2.108299999999999896e-01 2.444719999999999782e+00 3.366499999999999826e+00 -1.790519999999999889e+00 6.076590000000000380e+00 3.362389999999999990e+00 4.237359999999999793e+00 2.443810000000000038e+00 3.361590000000000078e+00 2.235500000000000043e+00 6.065220000000000056e+00 3.365050000000000097e+00
2.194290000000000074e+00 1.226089999999999902e+00 2.024169999999999803e+00 1.934800000000000131e-01 4.854790000000000383e+00 2.036470000000000002e+00 6.222480000000000011e+00 1.235899999999999999e+00 2.019120000000000026e+00 4.218750000000000000e+00 4.857269999999999754e+00 2.036369999999999791e+00 4.090300000000000047e-01 2.326589999999999936e+00 8.740410000000000679e+00 -1.590589999999999948e+00 5.953459999999999752e+00 8.724249999999999616e+00 4.440360000000000085e+00 2.330880000000000063e+00 8.741319999999999979e+00 2.439540000000000042e+00 5.954209999999999781e+00 8.735870000000000246e+00 4.144040000000000390e+00 6.752640000000000420e+00 2.532999999999999835e-02 6.148970000000000269e+00 3.117879999999999985e+00 2.127000000000000071e-02 1.166399999999999937e-01 6.749240000000000350e+00 1.311999999999999972e-02 2.122170000000000112e+00 3.124559999999999782e+00 2.374000000000000069e-02 2.374190000000000023e+00 1.064429999999999987e+00 7.390990000000000393e+00 3.736900000000000222e-01 4.682509999999999728e+00 7.405030000000000001e+00 6.400839999999999641e+00 1.055320000000000036e+00 7.390130000000000088e+00 4.399799999999999933e+00 4.678510000000000169e+00 7.402219999999999800e+00 2.109300000000000064e-01 2.449800000000000200e+00 3.370039999999999925e+00 -1.791800000000000059e+00 6.070470000000000255e+00 3.365130000000000177e+00 4.231519999999999726e+00 2.447859999999999925e+00 3.365450000000000053e+00 2.235360000000000014e+00 6.063410000000000188e+00 3.369209999999999816e+00
2.186179999999999790e+00 1.228860000000000063e+00 2.021549999999999958e+00 1.909500000000000086e-01 4.849169999999999980e+00 2.041469999999999896e+00 6.226619999999999600e+00 1.241950000000000109e+00 2.008960000000000079e+00 4.213210000000000122e+00 4.850749999999999673e+00 2.033539999999999903e+00 4.029699999999999949e-01 2.327780000000000182e+00 8.744519999999999627e+00 -1.587890000000000024e+00 5.951109999999999900e+00 8.717840000000000700e+00 4.437059999999999782e+00 2.333940000000000126e+00 8.746700000000000585e+00 2.446149999999999824e+00 5.955940000000000012e+00 8.732179999999999609e+00 4.145319999999999894e+00 6.758200000000000429e+00 2.741000000000000034e-02 6.153200000000000003e+00 3.117869999999999919e+00 2.351999999999999924e-02 1.201699999999999990e-01 6.753840000000000288e+00 1.039999999999999952e-02 2.118199999999999861e+00 3.128099999999999881e+00 2.151000000000000134e-02 2.381780000000000008e+00 1.064689999999999914e+00 7.384109999999999729e+00 3.803599999999999759e-01 4.677730000000000388e+00 7.412449999999999761e+00 6.402180000000000426e+00 1.055700000000000083e+00 7.388239999999999696e+00 4.404289999999999594e+00 4.666979999999999684e+00 7.406460000000000043e+00 2.109800000000000009e-01 2.455090000000000217e+00 3.373520000000000074e+00 -1.793160000000000087e+00 6.064269999999999605e+00 3.367809999999999970e+00 4.225480000000000125e+00 2.452090000000000103e+00 3.369250000000000078e+00 2.235170000000000101e+00 6.061670000000000336e+00 3.373330000000000162e+00
2.178160000000000096e+00 1.231589999999999963e+00 2.018940000000000179e+00 1.884500000000000064e-01 4.843630000000000102e+00 2.046380000000000088e+00 6.230730000000000324e+00 1.247889999999999944e+00 1.998920000000000030e+00 4.207729999999999748e+00 4.844299999999999606e+00 2.030699999999999950e+00 3.970000000000000195e-01 2.328949999999999854e+00 8.748549999999999827e+00 -1.585220000000000073e+00 5.948830000000000062e+00 8.711479999999999890e+00 4.433819999999999872e+00 2.336949999999999861e+00 8.752010000000000289e+00 2.452710000000000168e+00 5.957690000000000374e+00 8.728519999999999612e+00 4.146609999999999907e+00 6.763650000000000162e+00 2.954000000000000029e-02 6.157379999999999853e+00 3.117849999999999788e+00 2.582999999999999879e-02 1.236799999999999983e-01 6.758339999999999570e+00 7.830000000000000154e-03 2.114269999999999872e+00 3.131559999999999899e+00 1.938000000000000139e-02 2.389269999999999783e+00 1.064880000000000049e+00 7.377480000000000260e+00 3.869799999999999907e-01 4.672920000000000407e+00 7.419900000000000162e+00 6.403520000000000323e+00 1.056019999999999959e+00 7.386549999999999727e+00 4.408730000000000260e+00 4.655520000000000103e+00 7.410779999999999923e+00 2.109800000000000009e-01 2.460360000000000102e+00 3.376809999999999867e+00 -1.794569999999999999e+00 6.058220000000000383e+00 3.370289999999999786e+00 4.219490000000000407e+00 2.456319999999999837e+00 3.372840000000000060e+00 2.234929999999999861e+00 6.060089999999999755e+00 3.377229999999999954e+00
2.170360000000000067e+00 1.234220000000000095e+00 2.016379999999999839e+00 1.860499999999999932e-01 4.838280000000000136e+00 2.051120000000000054e+00 6.234709999999999752e+00 1.253630000000000022e+00 1.989170000000000105e+00 4.202379999999999782e+00 4.838029999999999831e+00 2.027909999999999879e+00 3.912399999999999767e-01 2.330060000000000020e+00 8.752420000000000755e+00 -1.582600000000000007e+00 5.946690000000000254e+00 8.705289999999999750e+00 4.430690000000000239e+00 2.339830000000000076e+00 8.757160000000000721e+00 2.459109999999999907e+00 5.959439999999999849e+00 8.724940000000000140e+00 4.147920000000000051e+00 6.768909999999999982e+00 3.166999999999999676e-02 6.161439999999999806e+00 3.117840000000000167e+00 2.815000000000000141e-02 1.271200000000000108e-01 6.762669999999999959e+00 5.429999999999999931e-03 2.110440000000000094e+00 3.134879999999999889e+00 1.738999999999999921e-02 2.396539999999999893e+00 1.064999999999999947e+00 7.371229999999999727e+00 3.934400000000000119e-01 4.668180000000000440e+00 7.427249999999999908e+00 6.404810000000000336e+00 1.056289999999999951e+00 7.385080000000000311e+00 4.413079999999999892e+00 4.644359999999999822e+00 7.415099999999999802e+00 2.109000000000000041e-01 2.465520000000000156e+00 3.379849999999999799e+00 -1.796019999999999950e+00 6.052450000000000330e+00 3.372529999999999806e+00 4.213650000000000340e+00 2.460459999999999869e+00 3.376139999999999919e+00 2.234640000000000182e+00 6.058690000000000353e+00 3.380840000000000067e+00
2.162510000000000154e+00 1.236839999999999939e+00 2.013799999999999812e+00 1.836399999999999977e-01 4.832939999999999792e+00 2.055849999999999955e+00 6.238719999999999821e+00 1.259349999999999969e+00 1.979389999999999983e+00 4.196990000000000443e+00 4.831719999999999793e+00 2.025079999999999991e+00 3.855000000000000093e-01 2.331139999999999990e+00 8.756259999999999266e+00 -1.579949999999999966e+00 5.944619999999999571e+00 8.699049999999999727e+00 4.427539999999999587e+00 2.342670000000000030e+00 8.762340000000000018e+00 2.465580000000000105e+00 5.961269999999999847e+00 8.721339999999999648e+00 4.149300000000000210e+00 6.774160000000000181e+00 3.386999999999999733e-02 6.165519999999999889e+00 3.117849999999999788e+00 3.056999999999999995e-02 1.306100000000000039e-01 6.766960000000000086e+00 3.139999999999999996e-03 2.106559999999999988e+00 3.138209999999999944e+00 1.548000000000000070e-02 2.403820000000000068e+00 1.065050000000000052e+00 7.365149999999999864e+00 3.999800000000000022e-01 4.663330000000000197e+00 7.434759999999999813e+00 6.406109999999999971e+00 1.056519999999999904e+00 7.383799999999999919e+00 4.417480000000000295e+00 4.633099999999999774e+00 7.419570000000000221e+00 2.107600000000000029e-01 2.470740000000000158e+00 3.382769999999999833e+00 -1.797560000000000047e+00 6.046739999999999782e+00 3.374600000000000044e+00 4.207749999999999879e+00 2.464649999999999785e+00 3.379239999999999799e+00 2.234290000000000109e+00 6.057439999999999714e+00 3.384259999999999824e+00
2.154360000000000053e+00 1.239519999999999955e+00 2.011099999999999888e+00 1.811599999999999877e-01 4.827469999999999928e+00 2.060729999999999951e+00 6.242849999999999788e+00 1.265220000000000011e+00 1.969279999999999919e+00 4.191360000000000419e+00 4.825179999999999580e+00 2.022120000000000140e+00 3.796200000000000130e-01 2.332209999999999894e+00 8.760170000000000456e+00 -1.577180000000000026e+00 5.942560000000000286e+00 8.692560000000000286e+00 4.424299999999999677e+00 2.345520000000000049e+00 8.767709999999999226e+00 2.472329999999999917e+00 5.963219999999999743e+00 8.717610000000000525e+00 4.150789999999999758e+00 6.779550000000000409e+00 3.620000000000000301e-02 6.169710000000000250e+00 3.117910000000000181e+00 3.316000000000000197e-02 1.342700000000000005e-01 6.771359999999999602e+00 8.899999999999999491e-04 2.102510000000000101e+00 3.141630000000000145e+00 1.358999999999999965e-02 2.411340000000000039e+00 1.065039999999999987e+00 7.359060000000000379e+00 4.067999999999999949e-01 4.658220000000000027e+00 7.442650000000000432e+00 6.407460000000000377e+00 1.056720000000000104e+00 7.382670000000000066e+00 4.422069999999999723e+00 4.621430000000000149e+00 7.424299999999999677e+00 2.105200000000000127e-01 2.476160000000000139e+00 3.385660000000000114e+00 -1.799250000000000016e+00 6.040919999999999845e+00 3.376539999999999875e+00 4.201629999999999754e+00 2.468999999999999861e+00 3.382210000000000161e+00 2.233870000000000022e+00 6.056320000000000370e+00 3.387589999999999879e+00
2.146119999999999806e+00 1.242189999999999905e+00 2.008370000000000211e+00 1.786800000000000055e-01 4.822020000000000195e+00 2.065630000000000077e+00 6.246999999999999886e+00 1.271079999999999988e+00 1.959100000000000064e+00 4.185629999999999740e+00 4.818590000000000373e+00 2.019120000000000026e+00 3.737599999999999811e-01 2.333219999999999850e+00 8.764039999999999608e+00 -1.574349999999999916e+00 5.940579999999999750e+00 8.685980000000000700e+00 4.421039999999999637e+00 2.348310000000000120e+00 8.773149999999999338e+00 2.479200000000000070e+00 5.965259999999999785e+00 8.713839999999999364e+00 4.152389999999999581e+00 6.784959999999999880e+00 3.860000000000000236e-02 6.173919999999999852e+00 3.118030000000000079e+00 3.586000000000000298e-02 7.549799999999999844e-01 6.418459999999999610e+00 1.077275000000000027e+01 2.098380000000000134e+00 3.145070000000000032e+00 1.176999999999999921e-02 2.418909999999999894e+00 1.064969999999999972e+00 7.353130000000000166e+00 4.137500000000000067e-01 4.652980000000000338e+00 7.450709999999999944e+00 6.408830000000000027e+00 1.056899999999999951e+00 7.381719999999999615e+00 4.426759999999999806e+00 4.609639999999999738e+00 7.429179999999999673e+00 2.101899999999999880e-01 2.481640000000000068e+00 3.388450000000000184e+00 -1.801080000000000014e+00 6.035140000000000171e+00 3.378289999999999793e+00 4.195429999999999993e+00 2.473380000000000134e+00 3.384970000000000034e+00 2.233400000000000052e+00 6.055340000000000167e+00 3.390740000000000087e+00
2.138079999999999981e+00 1.244750000000000023e+00 2.005710000000000104e+00 1.762700000000000100e-01 4.816799999999999748e+00 2.070390000000000175e+00 6.251009999999999955e+00 1.276710000000000012e+00 1.949249999999999927e+00 4.179999999999999716e+00 4.812170000000000059e+00 2.016179999999999861e+00 3.681499999999999773e-01 2.334119999999999973e+00 8.767730000000000246e+00 -1.571560000000000068e+00 5.938760000000000261e+00 8.679550000000000765e+00 4.417869999999999742e+00 2.350880000000000081e+00 8.778470000000000439e+00 2.485930000000000195e+00 5.967329999999999579e+00 8.710179999999999367e+00 4.154020000000000046e+00 6.790180000000000327e+00 4.098999999999999866e-02 6.177990000000000315e+00 3.118250000000000188e+00 3.857000000000000012e-02 7.586899999999999755e-01 6.422670000000000101e+00 1.077078000000000024e+01 2.094320000000000181e+00 3.148410000000000153e+00 1.009000000000000001e-02 2.426229999999999887e+00 1.064829999999999943e+00 7.347579999999999778e+00 4.205800000000000094e-01 4.647789999999999644e+00 7.458639999999999937e+00 6.410160000000000302e+00 1.057050000000000045e+00 7.381000000000000227e+00 4.431370000000000253e+00 4.598180000000000156e+00 7.434020000000000294e+00 2.097799999999999943e-01 2.486959999999999837e+00 3.391059999999999963e+00 -1.802980000000000027e+00 6.029620000000000424e+00 3.379779999999999784e+00 4.189379999999999882e+00 2.477629999999999999e+00 3.387389999999999901e+00 2.232880000000000198e+00 6.054570000000000007e+00 3.393559999999999910e+00