-7.210196335000000545e+01
-7.210056846999999891e+01
-7.209243379000000118e+01
-7.207785456000000579e+01
-7.205762258999999403e+01
-7.203134450000000299e+01
-7.199809179000000370e+01
-7.195871606999999415e+01
-7.191509469000000365e+01
-7.186692213999999979e+01
-7.208033700999999382e+01
-7.207697559000000354e+01
-7.206618059999999559e+01
-7.204839755000000423e+01
-7.202462812999999642e+01
-7.199457033000000195e+01
-7.195720430000000079e+01
-7.191329711999999574e+01
-7.186501158999999461e+01
-7.181246899999999300e+01
-7.138891223000000252e+01
-7.138496825000000001e+01
-7.137565007999999978e+01
-7.136102999999999952e+01
-7.134168692999999450e+01
-7.131704186999999706e+01
-7.128587380000000451e+01
-7.124854335999999932e+01
-7.120660420000000101e+01
-7.115971967999999492e+01
-7.200780385000000194e+01
-7.200424090999999294e+01
-7.199521862000000283e+01
-7.198095293000000083e+01
-7.196205976999999621e+01
-7.193810302999999351e+01
-7.190812022999999442e+01
-7.187261121000000230e+01
-7.183313594999999907e+01
-7.178957728000000316e+01
-7.218663911000000155e+01
-7.218096366999999702e+01
-7.216749464999999475e+01
-7.214681713999999602e+01
-7.211999486999999931e+01
-7.208658210999999483e+01
-7.204545937000000322e+01
-7.199755600999999672e+01
-7.194511008000000629e+01
-7.188801327999999558e+01
