-1.635108514584870942e-02 5.256261872199967378e-02 7.107955588380455991e-02 -1.635861369960833062e-02 5.261675028546063809e-02 7.104184521269464592e-02 -1.635014562898619295e-02 5.255561588997518380e-02 7.107851778376031437e-02 -1.635964685111555503e-02 5.260275100825501093e-02 7.104383338665160030e-02 4.451726861534061747e-02 -4.712487750144057214e-02 -1.673603063763420828e-02 4.451088515447185201e-02 -4.709978565251195237e-02 -1.675983506043084159e-02 4.452440734950344203e-02 -4.714294261195528524e-02 -1.672522831118831987e-02 4.451438217716076340e-02 -4.715189051202829662e-02 -1.672403206548494711e-02 2.936240808167653576e-03 -9.075645091654996333e-02 -4.915824021411170641e-02 2.932377683412686585e-03 -9.075944648887201982e-02 -4.915116188001455999e-02 2.931399483977097011e-03 -9.076344594505568464e-02 -4.914915004600072662e-02 2.933301363022494147e-03 -9.075744202672483829e-02 -4.915517796610414242e-02 -3.402911769890990673e-02 3.689328467642759291e-02 3.209513346356699937e-01 -3.404115755617332512e-02 3.690536219579067939e-02 3.209466255632442144e-01 -3.403627863002432058e-02 3.690334744504075726e-02 3.209415131412107214e-01 -3.402511299550625007e-02 3.689826530245025882e-02 3.209502595937773206e-01 2.080967024262146085e-03 4.881714956916088921e-02 -3.261662463226170927e-01 2.088894002962024717e-03 4.881211108967326018e-02 -3.261684318964878093e-01 2.082015364653310580e-03 4.881013431171656036e-02 -3.261622856225004363e-01 2.073892287478950290e-03 4.881119274346715220e-02 -3.261681075929098728e-01
-6.174550382161456130e-03 4.853488319646353383e-02 7.773265387006796090e-02 -1.139994777352852477e-02 1.244961467277879708e-01 4.510832443899805144e-02 -3.274155253216371603e-02 1.298201059569747268e-02 6.768511389276642143e-02 -3.224031617034084363e-02 5.067173934895665560e-02 1.074954199656332071e-01 5.016777447774062315e-02 -5.150038526201397571e-02 -1.573064448186048750e-02 6.010384920998480124e-02 -1.023657941781098146e-01 -3.986509653102901507e-02 1.172200459266989347e-01 -1.965951019362561017e-02 -9.213422459048165036e-02 5.820285133858688065e-02 -2.541481030813299083e-02 -2.513995865271003577e-02 2.641864647762561316e-03 -6.640575695020957403e-02 -2.449240067965153742e-02 1.165188764877061155e-03 -9.355686249649389219e-02 -3.305778945958635223e-02 -1.220007031064660082e-02 -1.001136113742547296e-01 -5.975693768925435280e-03 -2.477989153591034915e-02 -9.769282364925054030e-02 -2.432031435847893230e-03 -2.924243995505271254e-02 3.630541359329233358e-02 2.975180698668487556e-01 -1.038101932901828034e-01 8.073340699307894608e-02 2.998709869966495467e-01 -8.534807607814279273e-02 2.415729300128362927e-02 3.381837618848806959e-01 2.180976500940539492e-02 -9.302210581657689020e-03 3.453900826131650614e-01 3.857173218008329296e-02 1.014157110397378991e-02 -2.955822299685333943e-01 -1.187768102762496066e-03 7.211392869080629486e-02 -3.470452190906991308e-01 -2.997049124135346687e-02 6.528832210128952818e-02 -3.205653794874771534e-01 1.689717371673863516e-02 4.197284174655393357e-02 -3.761377169244066732e-01
4.555462424011510504e-03 4.399023107947359901e-02 8.306110310896391846e-02 -6.156295856545054498e-03 1.986598767622809736e-01 1.754388640301891844e-02 -4.967099632574770163e-02 -2.739348788327219605e-02 6.210890364188195734e-02 -4.725338227876703379e-02 4.815429930494910526e-02 1.433765291903318639e-01 5.600097512664040100e-02 -5.564865372341231547e-02 -1.355838989840434279e-02 7.464843452673365631e-02 -1.572182958418476828e-01 -6.032387766293896558e-02 1.911491985074507960e-01 7.291535670992263518e-03 -1.681355331020715771e-01 7.229697492713103857e-02 -1.579172987003279668e-03 -3.175906791867329909e-02 2.411870923691255848e-03 -4.133588760373201748e-02 3.778738666365044001e-04 -8.807203475837580920e-04 -9.612238192165070694e-02 -1.627160822960264930e-02 -2.804621539788874560e-02 -1.082789430832166583e-01 3.724627327178865049e-02 -5.472094417973455416e-02 -1.037896985320075904e-01 4.714437226979865947e-02 -2.436062583230767797e-02 3.616297271958989618e-02 2.724174412957813818e-01 -1.732381564128232243e-01 1.231768615093418867e-01 2.752836415561131789e-01 -1.365554525456401658e-01 9.538347681572736589e-03 3.534326052920993000e-01 7.911801155018453879e-02 -5.528097592043013098e-02 3.677999020345569248e-01 7.598153886599585960e-02 -3.076569780385244104e-02 -2.617859913922003234e-01 -4.713559395177767224e-03 9.529885620820531533e-02 -3.673907470680718990e-01 -6.297857252850688758e-02 8.190305569230418858e-02 -3.138240616086264145e-01 3.126906487823895298e-02 3.503796464213464884e-02 -4.256826398496619812e-01
1.489868534062988546e-02 3.976771417685710103e-02 8.754256800704843244e-02 -6.331109584451389974e-04 2.720567705964969107e-01 -9.899512165726240959e-03 -6.657189823671849638e-02 -6.678777889220381681e-02 5.511817112174614147e-02 -6.085107573733565534e-02 4.531477241907217596e-02 1.772725564807388354e-01 6.202992805708002627e-02 -5.966468752466705383e-02 -9.825692739818153373e-03 8.769212148290579656e-02 -2.100607428468057036e-01 -7.772726384915047693e-02 2.632534288220727547e-01 3.203718828505575100e-02 -2.418620574153990122e-01 8.590449461080092164e-02 2.352220364319163731e-02 -3.628293813118085853e-02 2.320774201275450140e-03 -1.644291873544712415e-02 2.445949649044673602e-02 -2.935474932402518024e-03 -9.833987504220188802e-02 5.266332740614793322e-04 -4.386832192140904113e-02 -1.148700391010153282e-01 7.947939191847676332e-02 -8.581317232492861879e-02 -1.088188687763043117e-01 9.783675208620513930e-02 -1.964897770476857833e-02 3.635083210437747153e-02 2.458969964547693954e-01 -2.410043108509005161e-01 1.633367678384445021e-01 2.474736792092698257e-01 -1.863842022019100153e-01 -6.965552153021892755e-03 3.654459826058579774e-01 1.366390441472709050e-01 -9.992435446795742970e-02 3.866035434106652735e-01 1.131197956706337521e-01 -7.290195104684636662e-02 -2.256843435154447797e-01 -8.314851920284973066e-03 1.179774660807340753e-01 -3.861625123593860343e-01 -9.603755598482340006e-02 9.826053239893475788e-02 -3.055899169264911786e-01 4.467629359119342641e-02 2.801296940397272894e-02 -4.725151402295227898e-01
2.514706487150752956e-02 3.534129069861731420e-02 9.093532915816611439e-02 5.031030780095122751e-03 3.447173189705330931e-01 -3.752985339776193641e-02 -8.370107448724431465e-02 -1.057636036593358475e-01 4.677312187220027812e-02 -7.307961656895663183e-02 4.195733831478142689e-02 2.096361297836640825e-01 6.843664664157603217e-02 -6.318330534051251612e-02 -5.451827556298876991e-03 9.900428608070091507e-02 -2.607281404926061752e-01 -9.195879761566357058e-02 3.338017139580894965e-01 5.476618068879748197e-02 -3.138243052671410571e-01 9.925952581568082966e-02 4.959628296793332919e-02 -3.881941885977781975e-02 2.310405388303870579e-03 7.720322162555962563e-03 4.696517048460532862e-02 -5.076149298855122359e-03 -1.001668000237949524e-01 1.686460495501767784e-02 -5.926160610870486595e-02 -1.199283984283661814e-01 1.195714725920182520e-01 -1.173200005241031574e-01 -1.126819965219980901e-01 1.482149778998089196e-01 -1.539657484039103595e-02 3.709632944256487097e-02 2.189098207255054662e-01 -3.053529323946772567e-01 2.001568484219667932e-01 2.175445269772545986e-01 -2.337321084347749323e-01 -2.480466494304732483e-02 3.743132920384978357e-01 1.928577584818013668e-01 -1.421341419720149324e-01 4.018607260062299624e-01 1.490020419183314682e-01 -1.150532780586437237e-01 -1.883250946133525616e-01 -1.187656470039554456e-02 1.394918280069540328e-01 -4.032396257006442553e-01 -1.282324911866804806e-01 1.140436479916448337e-01 -2.962557413702149867e-01 5.689480541979907019e-02 2.114249764616856278e-02 -5.159615719930360500e-01
3.553107980766397750e-02 3.139530476646010260e-02 9.340911165578281994e-02 1.083453203814961630e-02 4.180399683998750615e-01 -6.636687186198958477e-02 -1.014159254977588381e-01 -1.449994000136247962e-01 3.681578668345767552e-02 -8.441621333444980502e-02 3.823278737705768093e-02 2.416652976259797414e-01 7.514715819901984784e-02 -6.618206976195051272e-02 -2.703027565733886093e-05 1.088810980672512974e-01 -3.112364212794056506e-01 -1.037501104088951465e-01 4.042100781429053824e-01 7.617275618152605232e-02 -3.840273719117118234e-01 1.128631432301219623e-01 7.710399048459368188e-02 -3.838403413619619065e-02 2.427405183164837998e-03 3.218498797197755223e-02 6.899770787004742834e-02 -7.378191178184397014e-03 -1.017014938698491966e-01 3.348188197487093898e-02 -7.499561120753424348e-02 -1.235925325706171279e-01 1.591022990103829748e-01 -1.503671491180534336e-01 -1.156251266132471839e-01 2.000653678445613870e-01 -1.122044572742868403e-02 3.814728429825741535e-02 1.906407565536439863e-01 -3.687089910819708050e-01 2.349191179349714165e-01 1.847919805672590676e-01 -2.804142509211765555e-01 -4.410221914994918307e-02 3.805418537301322179e-01 2.499121503037266268e-01 -1.836697519164165182e-01 4.142617103034380022e-01 1.850491297210909714e-01 -1.587251956853283630e-01 -1.485746384351013250e-01 -1.556678613900754071e-02 1.607572975555401629e-01 -4.192202974677418092e-01 -1.607924574795008554e-01 1.296537241929612283e-01 -2.856357424668671818e-01 6.848075161914171649e-02 1.422971797022712023e-02 -5.578089575617850571e-01
4.616791294249213140e-02 2.758010011186041652e-02 9.496649672570965650e-02 1.725671039184378461e-02 4.942934455736467947e-01 -9.696849586017239342e-02 -1.193611266540703375e-01 -1.850751956786739760e-01 2.485089582633805139e-02 -9.505015937149839667e-02 3.393171090912634053e-02 2.731256032546788282e-01 8.255980817050057041e-02 -6.890488820678231097e-02 6.750495541882309443e-03 1.174546628566681267e-01 -3.624112788329801882e-01 -1.131211340416557465e-01 4.761872643443600395e-01 9.654290196701291460e-02 -4.543191804634955644e-01 1.271090848246708427e-01 1.070543818560372590e-01 -3.506186642859140945e-02 2.634203726136097323e-03 5.754218515428008440e-02 9.102650792159258653e-02 -1.010949367354969583e-02 -1.028554272363261385e-01 5.077761078169468201e-02 -9.155203499525259303e-02 -1.260508885765629639e-01 1.993782004214275649e-01 -1.860792286786281946e-01 -1.175223123945576820e-01 2.551781413949925081e-01 -7.024319918079958633e-03 3.963015136916688691e-02 1.598297204969882368e-01 -4.335037201244242300e-01 2.689288634104604059e-01 1.479889042734038873e-01 -3.278770929060821349e-01 -6.573080899413798195e-02 3.839319331840378435e-01 3.099390719294830565e-01 -2.259401671321361049e-01 4.238975087893216975e-01 2.223841445683806539e-01 -2.055279857151820211e-01 -1.047080063101647612e-01 -1.946307400111693675e-02 1.823988485555639028e-01 -4.343313410255256746e-01 -1.948137896631498278e-01 1.455503335112346974e-01 -2.731127686777942154e-01 7.970604250596262375e-02 7.011165434547548744e-03 -5.989170760533440996e-01
5.676409685173326725e-02 2.352643309989865122e-02 9.554393876747514780e-02 2.407175388238630420e-02 5.712553072416753919e-01 -1.282170652223983132e-01 -1.372891043990598636e-01 -2.248204318819201353e-01 1.134408152875135758e-02 -1.046454681743564930e-01 2.921565303349221016e-02 3.030078933153331766e-01 9.075631540871693936e-02 -7.126523288317804239e-02 1.489118882224961526e-02 1.246209844969957403e-01 -4.127438553836039192e-01 -1.197587804341634227e-01 5.483863358946921007e-01 1.158600549862206786e-01 -5.230240542112609692e-01 1.412518126259289519e-01 1.389743902709471290e-01 -2.920995055983394498e-02 3.104708952273633072e-03 8.293105578031159664e-02 1.121584319722976342e-01 -1.276401942149258707e-02 -1.038394131259016279e-01 6.834115514736407992e-02 -1.077726136463237477e-01 -1.269043259711837290e-01 2.389206045774197318e-01 -2.226518024593229783e-01 -1.186644746147419716e-01 3.105945924899882749e-01 -3.383754157224621011e-03 4.173244985904480536e-02 1.280180752728526938e-01 -4.967719213770731002e-01 3.002960912728242504e-01 1.086844364460467505e-01 -3.743710903986506300e-01 -8.917163529890882734e-02 3.843127003012570264e-01 3.704629122658465445e-01 -2.672161663570751799e-01 4.305202401303980797e-01 2.593882333549773489e-01 -2.535138233818859943e-01 -5.879362027704796573e-02 -2.334795936694182561e-02 2.037056995414837368e-01 -4.483301975940438000e-01 -2.287909602628032946e-01 1.614555384684554229e-01 -2.592534139869434595e-01 9.017887596682130913e-02 -3.008428884780308971e-04 -6.380855843262071003e-01
6.686957471709198408e-02 2.000337011613492061e-02 9.531918697278200792e-02 3.139846833280485888e-02 6.462873177321255547e-01 -1.594635663277615689e-01 -1.543238498204211329e-01 -2.636786468931802130e-01 -3.394264896222066747e-03 -1.133664778394026379e-01 2.420825407052236075e-02 3.305788758695045182e-01 9.913554500773440192e-02 -7.349783658109793061e-02 2.440855300745404730e-02 1.303842216477663907e-01 -4.611274303331108770e-01 -1.243915645559948852e-01 6.183855517984633288e-01 1.335705283985162140e-01 -5.880351551270138755e-01 1.546815726200613250e-01 1.716274611108382087e-01 -2.045499881281895305e-02 3.687906424779055156e-03 1.076037098418343024e-01 1.318467770348460688e-01 -1.552534493957139113e-02 -1.043714750817843762e-01 8.534301226673329799e-02 -1.234933182001829721e-01 -1.263997445188304036e-01 2.764590230314120101e-01 -2.594054038528993411e-01 -1.187059957319575310e-01 3.653235538248235104e-01 -7.671190360333422767e-06 4.399999947519302179e-02 9.587051649144200105e-02 -5.573552123121686686e-01 3.287139799983350708e-01 6.833695269846086495e-02 -4.185858481909940365e-01 -1.132572811872911700e-01 3.818545767858347872e-01 4.300496267192074895e-01 -3.065171975705294205e-01 4.338534863271003572e-01 2.951164636175507838e-01 -3.012690807711644325e-01 -1.227274700988013369e-02 -2.715767769479135799e-02 2.240790761596296310e-01 -4.606195997085585914e-01 -2.618688610487504564e-01 1.765766897866455076e-01 -2.445073672980448143e-01 9.964111614090763458e-02 -7.383943828514189997e-03 -6.740207525868410210e-01
7.674412378865810846e-02 1.669121153620137243e-02 9.440481991066400347e-02 3.882721787508266326e-02 7.204075369980167398e-01 -1.906195323216700321e-01 -1.715582915947244935e-01 -3.019340234027009795e-01 -1.886394240228555022e-02 -1.207849892737289793e-01 1.869373811268933497e-02 3.568609403976840677e-01 1.083488236440375840e-01 -7.491879310428334326e-02 3.467996232337671597e-02 1.344300437881144616e-01 -5.080881992362081823e-01 -1.262107586897128209e-01 6.880124444041316734e-01 1.501235429536752763e-01 -6.515736754934837727e-01 1.674868089792002079e-01 2.053286668007121007e-01 -9.453310626814283996e-03 4.458778291340104866e-03 1.320721820564862148e-01 1.503292406419557969e-01 -1.857695205615735382e-02 -1.044905590207631380e-01 1.021861754780540171e-01 -1.390372478179701665e-01 -1.245218785067098294e-01 3.126316790048068173e-01 -2.963874360919619977e-01 -1.179235240110831917e-01 4.193243598226086832e-01 3.038333546420199718e-03 4.664356923852860937e-02 6.321595454433387440e-02 -6.160504015526256927e-01 3.544367587663847519e-01 2.616623985268470842e-02 -4.614138117541914386e-01 -1.383443839453723789e-01 3.763610529627673951e-01 4.895099197480657915e-01 -3.446813893694815611e-01 4.341755866323739332e-01 3.300530569828414862e-01 -3.492542311082843520e-01 3.561711322162793014e-02 -3.098691751164069780e-02 2.437306999768618365e-01 -4.712829803599062339e-01 -2.944274876293363485e-01 1.912010619973567582e-01 -2.285285611873490441e-01 1.083890391784453899e-01 -1.435344520672154900e-02 -7.072814498455839427e-01
-1.722100000000000020e-02 1.654600000000000168e-02 -1.023519999999999985e-01 3.650400000000000172e-02 -6.590999999999999637e-02 -1.122189999999999993e-01 8.968700000000000283e-02 -4.140100000000000030e-02 -8.932500000000000162e-02 3.190199999999999980e-02 -5.246800000000000075e-02 -1.515279999999999960e-01 -1.957899999999999918e-02 8.534200000000000119e-02 -4.094199999999999923e-02 1.038900000000000066e-02 1.016190000000000010e-01 -3.808700000000000280e-02 2.888900000000000148e-02 7.166899999999999660e-02 -5.876800000000000079e-02 5.112599999999999784e-02 1.078540000000000054e-01 -9.080900000000000083e-02 3.436000000000000165e-02 -8.707700000000000162e-02 1.524860000000000104e-01 3.382299999999999890e-02 -9.315099999999999769e-02 1.469100000000000128e-01 1.190399999999999965e-02 -8.196199999999999319e-02 2.011600000000000055e-01 1.234200000000000054e-02 -9.746399999999999508e-02 1.446780000000000010e-01 4.266199999999999853e-02 -1.641459999999999864e-01 3.003230000000000066e-01 1.279399999999999982e-02 -1.389050000000000007e-01 2.915019999999999833e-01 3.663000000000000023e-03 -1.372950000000000004e-01 3.391710000000000003e-01 -5.240000000000000517e-04 -1.425609999999999933e-01 2.960289999999999866e-01 -8.997900000000000342e-02 1.478279999999999872e-01 -3.490309999999999802e-01 -7.635200000000000320e-02 1.700990000000000002e-01 -2.752939999999999832e-01 -8.820400000000000462e-02 1.695359999999999923e-01 -2.756410000000000249e-01 -1.067120000000000013e-01 2.318399999999999905e-01 -2.885579999999999812e-01
1.965300000000000033e-02 -2.100799999999999890e-02 -7.416599999999999582e-02 5.039099999999999829e-02 9.320999999999999425e-03 -1.298570000000000002e-01 3.840400000000000064e-02 -9.210999999999999743e-02 -5.614000000000000067e-03 3.230700000000000238e-02 -1.166200000000000049e-02 -1.191399999999999959e-01 5.721500000000000197e-02 2.878299999999999956e-02 -9.594600000000000350e-02 8.196000000000000160e-03 1.463450000000000029e-01 -1.195000000000000055e-02 4.765500000000000291e-02 -2.308000000000000156e-03 -7.543800000000000505e-02 3.332100000000000339e-02 1.160660000000000025e-01 -5.815000000000000030e-02 5.267700000000000160e-02 -1.048599999999999949e-01 1.362069999999999947e-01 5.950000000000000427e-03 -6.077099999999999863e-02 1.466840000000000088e-01 1.499600000000000065e-02 -1.053029999999999938e-01 2.209589999999999888e-01 1.070300000000000071e-02 -9.829599999999999449e-02 1.583009999999999973e-01 -7.807999999999999836e-03 -1.542659999999999865e-01 3.517549999999999844e-01 7.812000000000000367e-03 -1.304599999999999926e-01 2.508299999999999974e-01 -3.396999999999999846e-03 -1.236119999999999997e-01 3.564430000000000098e-01 -4.279999999999999950e-04 -8.705300000000000538e-02 2.695190000000000086e-01 -1.056590000000000029e-01 1.098500000000000032e-01 -3.461330000000000240e-01 -9.752700000000000258e-02 1.976950000000000096e-01 -3.110299999999999732e-01 -5.363199999999999912e-02 1.220480000000000037e-01 -3.296839999999999771e-01 -1.078339999999999993e-01 2.600419999999999954e-01 -3.321290000000000076e-01
5.581400000000000250e-02 -5.765900000000000192e-02 -4.672199999999999964e-02 6.445199999999999541e-02 8.602600000000000524e-02 -1.467130000000000101e-01 -1.194300000000000049e-02 -1.451449999999999962e-01 7.882999999999999730e-02 3.201500000000000179e-02 3.052900000000000058e-02 -8.631600000000000383e-02 1.320159999999999945e-01 -2.725100000000000092e-02 -1.492700000000000138e-01 6.806999999999999683e-03 1.910650000000000126e-01 1.382300000000000022e-02 6.481199999999999461e-02 -7.883999999999999342e-02 -8.840299999999999547e-02 1.531899999999999928e-02 1.242589999999999945e-01 -2.431499999999999981e-02 7.063099999999999934e-02 -1.225060000000000038e-01 1.198030000000000067e-01 -2.304000000000000145e-02 -2.515799999999999981e-02 1.448039999999999883e-01 1.852799999999999933e-02 -1.273590000000000000e-01 2.386040000000000105e-01 8.847000000000000697e-03 -9.863600000000000145e-02 1.720109999999999972e-01 -5.591600000000000042e-02 -1.459749999999999936e-01 4.013579999999999925e-01 3.040000000000000167e-03 -1.212349999999999955e-01 2.086240000000000039e-01 -9.511999999999999622e-03 -1.099090000000000067e-01 3.726160000000000028e-01 4.899999999999999842e-05 -2.810899999999999857e-02 2.405229999999999868e-01 -1.214640000000000025e-01 6.983899999999999830e-02 -3.420799999999999952e-01 -1.188680000000000014e-01 2.242589999999999861e-01 -3.461710000000000065e-01 -2.043299999999999977e-02 7.488200000000000411e-02 -3.830669999999999908e-01 -1.085190000000000043e-01 2.861389999999999767e-01 -3.753449999999999842e-01
9.032600000000000351e-02 -9.223099999999999354e-02 -2.127199999999999924e-02 7.799499999999999489e-02 1.606799999999999895e-01 -1.628419999999999868e-01 -5.889899999999999997e-02 -1.986640000000000073e-01 1.606960000000000055e-01 3.088000000000000120e-02 7.181899999999999396e-02 -5.555299999999999822e-02 2.021959999999999869e-01 -8.079100000000000170e-02 -1.987510000000000110e-01 6.075999999999999804e-03 2.338989999999999958e-01 3.859400000000000330e-02 8.086899999999999644e-02 -1.556889999999999941e-01 -9.829400000000000637e-02 -2.314000000000000085e-03 1.318030000000000035e-01 9.350000000000000672e-03 8.756099999999999994e-02 -1.399910000000000043e-01 1.034010000000000068e-01 -5.244200000000000250e-02 1.267899999999999930e-02 1.407609999999999972e-01 2.182800000000000018e-02 -1.478210000000000079e-01 2.537619999999999876e-01 7.192999999999999741e-03 -9.884400000000000130e-02 1.852530000000000010e-01 -1.007709999999999995e-01 -1.394569999999999976e-01 4.471890000000000032e-01 -1.988999999999999883e-03 -1.106270000000000031e-01 1.657510000000000094e-01 -1.472299999999999998e-02 -9.661000000000000143e-02 3.864989999999999815e-01 3.339999999999999870e-04 3.373299999999999910e-02 2.093589999999999895e-01 -1.366900000000000059e-01 2.810100000000000098e-02 -3.361379999999999924e-01 -1.392400000000000027e-01 2.496589999999999920e-01 -3.789589999999999903e-01 1.090999999999999956e-02 2.880800000000000027e-02 -4.329049999999999843e-01 -1.085699999999999998e-01 3.093929999999999736e-01 -4.162690000000000001e-01
1.238729999999999970e-01 -1.252030000000000087e-01 2.657000000000000074e-03 9.100999999999999368e-02 2.338969999999999938e-01 -1.784109999999999863e-01 -1.029159999999999936e-01 -2.528679999999999817e-01 2.404590000000000061e-01 2.932799999999999990e-02 1.126090000000000008e-01 -2.605599999999999930e-02 2.683099999999999929e-01 -1.321110000000000062e-01 -2.447979999999999878e-01 6.106000000000000316e-03 2.749759999999999982e-01 6.233799999999999758e-02 9.583999999999999464e-02 -2.328149999999999942e-01 -1.054039999999999977e-01 -1.960200000000000137e-02 1.386090000000000100e-01 4.295500000000000013e-02 1.031920000000000059e-01 -1.562949999999999895e-01 8.814500000000000113e-02 -8.092900000000000094e-02 5.147199999999999692e-02 1.353550000000000031e-01 2.542200000000000015e-02 -1.659460000000000102e-01 2.663670000000000204e-01 5.335999999999999598e-03 -9.868399999999999395e-02 1.980740000000000001e-01 -1.408870000000000122e-01 -1.347160000000000024e-01 4.886860000000000093e-01 -6.651999999999999927e-03 -9.952700000000000435e-02 1.241130000000000011e-01 -1.891800000000000079e-02 -8.411299999999999333e-02 3.987510000000000221e-01 8.859999999999999603e-04 9.561699999999999366e-02 1.776030000000000109e-01 -1.510799999999999921e-01 -1.302999999999999992e-02 -3.293380000000000196e-01 -1.585840000000000027e-01 2.726879999999999860e-01 -4.091299999999999937e-01 3.886499999999999677e-02 -1.417999999999999990e-02 -4.787420000000000009e-01 -1.083800000000000041e-01 3.295440000000000036e-01 -4.543110000000000204e-01
1.571549999999999891e-01 -1.573940000000000061e-01 2.582999999999999879e-02 1.038560000000000039e-01 3.072750000000000203e-01 -1.939089999999999980e-01 -1.452090000000000047e-01 -3.090459999999999874e-01 3.200580000000000092e-01 2.782300000000000051e-02 1.540860000000000007e-01 2.772999999999999857e-03 3.316209999999999991e-01 -1.823589999999999933e-01 -2.881420000000000092e-01 6.851000000000000319e-03 3.148520000000000207e-01 8.592299999999999938e-02 1.098210000000000020e-01 -3.117820000000000036e-01 -1.093269999999999936e-01 -3.688400000000000012e-02 1.443069999999999908e-01 7.708600000000000174e-02 1.181249999999999939e-01 -1.722599999999999965e-01 7.295200000000000295e-02 -1.098790000000000044e-01 9.281200000000000561e-02 1.278430000000000122e-01 2.912899999999999864e-02 -1.826949999999999963e-01 2.770599999999999730e-01 3.536000000000000081e-03 -9.828499999999999737e-02 2.106939999999999924e-01 -1.785410000000000053e-01 -1.312039999999999873e-01 5.273189999999999822e-01 -1.127500000000000030e-02 -8.714600000000000124e-02 8.159600000000000186e-02 -2.235499999999999987e-02 -7.180400000000000671e-02 4.091310000000000224e-01 1.495999999999999934e-03 1.606229999999999880e-01 1.435690000000000022e-01 -1.651279999999999970e-01 -5.598199999999999704e-02 -3.207769999999999788e-01 -1.774390000000000134e-01 2.947839999999999905e-01 -4.376669999999999727e-01 6.518200000000000383e-02 -5.665800000000000003e-02 -5.219819999999999460e-01 -1.077869999999999939e-01 3.477459999999999996e-01 -4.907320000000000015e-01
1.908229999999999926e-01 -1.892639999999999878e-01 4.854599999999999888e-02 1.168140000000000012e-01 3.823750000000000204e-01 -2.096649999999999903e-01 -1.865779999999999939e-01 -3.685410000000000075e-01 4.014420000000000210e-01 2.620799999999999866e-02 1.967649999999999955e-01 3.135099999999999693e-02 3.934750000000000192e-01 -2.325349999999999917e-01 -3.295600000000000196e-01 8.345999999999999253e-03 3.541770000000000196e-01 1.096410000000000023e-01 1.232619999999999966e-01 -3.937220000000000164e-01 -1.100679999999999992e-01 -5.436799999999999966e-02 1.492269999999999985e-01 1.120479999999999948e-01 1.326080000000000036e-01 -1.885090000000000099e-01 5.713200000000000223e-02 -1.401550000000000018e-01 1.379370000000000041e-01 1.175390000000000046e-01 3.280299999999999883e-02 -1.986239999999999950e-01 2.859400000000000275e-01 1.938999999999999968e-03 -9.785399999999999654e-02 2.234099999999999975e-01 -2.149619999999999864e-01 -1.289240000000000108e-01 5.641850000000000476e-01 -1.651599999999999943e-02 -7.252300000000000413e-02 3.680800000000000044e-02 -2.523900000000000102e-02 -5.934799999999999798e-02 4.178870000000000084e-01 2.099999999999999870e-03 2.311670000000000114e-01 1.060640000000000055e-01 -1.790239999999999887e-01 -1.021859999999999991e-01 -3.103520000000000167e-01 -1.960570000000000090e-01 3.166970000000000063e-01 -4.651919999999999944e-01 9.074699999999999434e-02 -9.985600000000000032e-02 -5.635649999999999826e-01 -1.067789999999999989e-01 3.642299999999999982e-01 -5.264659999999999895e-01
2.246390000000000053e-01 -2.206770000000000120e-01 7.045600000000000473e-02 1.295300000000000062e-01 4.581680000000000197e-01 -2.256090000000000040e-01 -2.264029999999999931e-01 -4.306579999999999853e-01 4.833330000000000126e-01 2.460199999999999887e-02 2.403440000000000021e-01 5.917900000000000243e-02 4.531939999999999857e-01 -2.819949999999999957e-01 -3.684899999999999842e-01 1.081799999999999949e-02 3.928119999999999945e-01 1.333290000000000031e-01 1.357770000000000088e-01 -4.781309999999999727e-01 -1.076850000000000029e-01 -7.215299999999999492e-02 1.531000000000000139e-01 1.479189999999999949e-01 1.463230000000000086e-01 -2.041100000000000136e-01 4.183900000000000119e-02 -1.704670000000000074e-01 1.857209999999999972e-01 1.050100000000000061e-01 3.692999999999999755e-02 -2.129880000000000106e-01 2.930099999999999927e-01 1.679999999999999907e-04 -9.705700000000000438e-02 2.360609999999999931e-01 -2.485459999999999892e-01 -1.277679999999999927e-01 5.981180000000000385e-01 -2.130500000000000102e-02 -5.691899999999999737e-02 -8.361000000000000376e-03 -2.737600000000000103e-02 -4.716000000000000053e-02 4.249839999999999729e-01 3.122000000000000209e-03 3.039450000000000207e-01 6.660399999999999654e-02 -1.926430000000000087e-01 -1.497660000000000102e-01 -2.984029999999999738e-01 -2.143450000000000077e-01 3.373720000000000052e-01 -4.911479999999999735e-01 1.143419999999999992e-01 -1.421560000000000046e-01 -6.025199999999999445e-01 -1.055109999999999937e-01 3.789020000000000166e-01 -5.605620000000000047e-01
2.564190000000000080e-01 -2.503230000000000177e-01 9.091499999999999582e-02 1.413059999999999872e-01 5.319770000000000332e-01 -2.411979999999999957e-01 -2.633769999999999722e-01 -4.934089999999999865e-01 5.630150000000000432e-01 2.267900000000000124e-02 2.828930000000000056e-01 8.483200000000000462e-02 5.082870000000000443e-01 -3.294340000000000046e-01 -4.029570000000000096e-01 1.396099999999999945e-02 4.288600000000000190e-01 1.560610000000000053e-01 1.470950000000000035e-01 -5.620110000000000383e-01 -1.016900000000000026e-01 -8.912599999999999689e-02 1.556849999999999901e-01 1.831649999999999945e-01 1.588179999999999870e-01 -2.188100000000000045e-01 2.707700000000000037e-02 -1.999809999999999921e-01 2.343880000000000130e-01 9.037900000000000100e-02 4.100399999999999878e-02 -2.255179999999999962e-01 2.981019999999999781e-01 -1.330000000000000019e-03 -9.631900000000000184e-02 2.481180000000000052e-01 -2.789189999999999725e-01 -1.277810000000000057e-01 6.282710000000000239e-01 -2.623500000000000137e-02 -3.978600000000000192e-02 -5.259699999999999792e-02 -2.886400000000000077e-02 -3.563800000000000301e-02 4.300660000000000038e-01 4.211999999999999598e-03 3.775800000000000267e-01 2.638300000000000020e-02 -2.052789999999999893e-01 -1.975649999999999906e-01 -2.853169999999999873e-01 -2.313900000000000123e-01 3.566420000000000146e-01 -5.145189999999999486e-01 1.355490000000000028e-01 -1.826800000000000090e-01 -6.372999999999999776e-01 -1.040849999999999970e-01 3.913460000000000272e-01 -5.918029999999999680e-01