1.928129999999999900e+00 9.913699999999999735e-01 1.180840000000000067e+01 1.191699999999999982e-01 4.246550000000000047e+00 1.168629999999999924e+01 6.223620000000000374e+00 8.848799999999999999e-01 1.222499999999999964e+01 4.406010000000000204e+00 4.378820000000000157e+00 1.178710000000000058e+01 1.019989999999999952e+00 4.282000000000000250e-01 1.631879999999999953e+01 -1.745849999999999902e+00 3.586120000000000196e+00 1.549370000000000047e+01 5.122499999999999831e-01 6.701010000000000133e+00 1.664310000000000045e+01 2.161189999999999944e+00 4.176639999999999908e+00 1.528930000000000078e+01 4.106469999999999843e+00 6.684309999999999974e+00 1.064499999999999957e+01 6.327130000000000365e+00 3.071709999999999940e+00 1.050270000000000081e+01 1.888199999999999878e-01 6.646490000000000009e+00 1.082760000000000034e+01 2.279980000000000118e+00 3.233550000000000146e+00 1.031189999999999962e+01 2.169800000000000062e-01 2.431900000000000173e+00 1.366859999999999964e+01 -1.861639999999999961e+00 6.050639999999999574e+00 1.390740000000000087e+01 4.252320000000000100e+00 3.013609999999999900e+00 1.406300000000000061e+01 2.600870000000000015e+00 6.797979999999999912e+00 1.477929999999999922e+01 2.216689999999999827e+00 6.318990000000000329e+00 1.882460000000000022e+01 5.746629999999999683e+00 4.362090000000000245e+00 1.789229999999999876e+01 3.195399999999999907e-01 3.440160000000000107e+00 1.705969999999999942e+01 3.260369999999999990e+00 4.414789999999999992e+00 1.814989999999999881e+01
1.692190000000000083e+00 1.545250000000000012e+00 1.208150000000000013e+01 -5.297999999999999932e-02 4.870770000000000266e+00 1.177940000000000076e+01 5.687619999999999898e+00 1.533360000000000056e+00 1.185130000000000017e+01 3.725169999999999870e+00 5.000200000000000422e+00 1.204449999999999932e+01 3.339539999999999953e+00 6.637789999999999857e+00 1.532130000000000081e+01 5.555320000000000036e+00 3.274379999999999846e+00 1.552940000000000076e+01 -4.254999999999999893e-01 6.412300000000000111e+00 1.684779999999999944e+01 1.578689999999999927e+00 3.376170000000000115e+00 1.598700000000000010e+01 -5.358000000000000262e-02 1.614400000000000002e-01 1.059360000000000035e+01 -2.026400000000000201e+00 3.854480000000000128e+00 1.069200000000000017e+01 3.600530000000000008e+00 2.687200000000000144e-01 1.072199999999999953e+01 1.984900000000000109e+00 3.678630000000000067e+00 1.049119999999999919e+01 -2.655500000000000083e-01 1.956690000000000040e+00 1.390150000000000041e+01 -2.368040000000000145e+00 5.506230000000000402e+00 1.413369999999999926e+01 3.758020000000000138e+00 1.805120000000000058e+00 1.435500000000000043e+01 1.421059999999999990e+00 5.597030000000000172e+00 1.372100000000000009e+01 7.336700000000000443e-01 5.720600000000000129e-01 1.755120000000000147e+01 5.255670000000000286e+00 4.004609999999999559e+00 1.808409999999999940e+01 6.254030000000000200e+00 6.370900000000000452e-01 1.752110000000000056e+01 3.450530000000000097e+00 2.525920000000000165e+00 1.857120000000000104e+01
2.151229999999999976e+00 1.034799999999999942e+00 1.207290000000000063e+01 1.061600000000000044e-01 4.936309999999999754e+00 1.201019999999999932e+01 6.208160000000000345e+00 1.280219999999999914e+00 1.206199999999999939e+01 4.444420000000000037e+00 4.911019999999999719e+00 1.168619999999999948e+01 2.856099999999999750e-01 4.787199999999999789e-01 1.655219999999999914e+01 -1.861410000000000009e+00 3.532169999999999810e+00 1.581080000000000041e+01 4.115540000000000198e+00 3.398999999999999938e-02 1.572020000000000017e+01 1.958939999999999904e+00 3.698659999999999837e+00 1.551660000000000039e+01 3.590000000000000135e-02 3.188099999999999823e-01 1.058050000000000068e+01 -1.651180000000000092e+00 3.590149999999999952e+00 1.062149999999999928e+01 4.248330000000000162e+00 1.326499999999999901e-01 1.051640000000000086e+01 2.307380000000000209e+00 3.676769999999999872e+00 1.082210000000000072e+01 -1.451500000000000012e-01 2.370150000000000201e+00 1.434939999999999927e+01 -2.376549999999999940e+00 5.905649999999999622e+00 1.377899999999999991e+01 3.830070000000000086e+00 2.262640000000000207e+00 1.410740000000000016e+01 1.637990000000000057e+00 5.973790000000000155e+00 1.421659999999999968e+01 6.122860000000000191e+00 1.876430000000000042e+00 1.759829999999999828e+01 -4.397000000000000214e-02 3.463490000000000180e+00 1.862170000000000059e+01 -1.646930000000000005e+00 5.878140000000000143e+00 1.731739999999999924e+01 1.845509999999999984e+00 2.727629999999999999e+00 1.783670000000000044e+01
2.091829999999999856e+00 8.189199999999999813e-01 1.194969999999999999e+01 1.169599999999999945e-01 4.302170000000000272e+00 1.195640000000000036e+01 6.393309999999999604e+00 7.152600000000000069e-01 1.206109999999999971e+01 4.322040000000000326e+00 4.168960000000000221e+00 1.190970000000000084e+01 4.224800000000000222e-01 2.794800000000000062e-01 1.596320000000000050e+01 -1.670209999999999972e+00 3.472080000000000055e+00 1.507399999999999984e+01 4.231390000000000207e+00 6.331999999999999851e-01 1.721829999999999927e+01 2.148010000000000197e+00 3.826490000000000169e+00 1.565090000000000003e+01 4.540689999999999671e+00 6.437289999999999957e+00 1.062069999999999936e+01 6.419959999999999667e+00 3.093360000000000110e+00 1.071700000000000053e+01 4.003499999999999837e-01 6.583700000000000330e+00 1.063250000000000028e+01 2.209049999999999958e+00 3.276009999999999867e+00 1.056799999999999962e+01 2.686700000000000199e-01 2.333680000000000199e+00 1.367099999999999937e+01 -1.226180000000000048e+00 5.996850000000000236e+00 1.406569999999999965e+01 4.212119999999999642e+00 2.773800000000000043e+00 1.404129999999999967e+01 2.657029999999999781e+00 6.208129999999999704e+00 1.438150000000000084e+01 3.194240000000000190e+00 6.673919999999999852e+00 1.822990000000000066e+01 5.674999999999999822e+00 3.719289999999999985e+00 1.762359999999999971e+01 1.390599999999999892e-01 3.804629999999999956e+00 1.714659999999999940e+01 3.288879999999999804e+00 4.338499999999999801e+00 1.816130000000000067e+01
2.079190000000000094e+00 1.137299999999999978e+00 1.142869999999999919e+01 -2.548400000000000110e-01 4.432059999999999889e+00 1.111309999999999931e+01 5.575249999999999595e+00 1.110500000000000043e+00 1.149070000000000036e+01 4.077989999999999782e+00 5.015679999999999694e+00 1.213550000000000040e+01 3.384759999999999991e+00 6.277580000000000382e+00 1.938060000000000116e+01 4.393650000000000055e+00 3.184289999999999843e+00 1.712040000000000006e+01 7.903900000000000370e-01 5.922780000000000378e+00 1.550399999999999956e+01 2.342810000000000059e+00 3.269639999999999880e+00 1.459960000000000058e+01 8.186349999999999127e+00 2.037400000000000044e-01 1.054909999999999926e+01 5.732610000000000205e+00 3.497510000000000119e+00 1.041719999999999935e+01 3.918590000000000018e+00 8.586000000000000576e-02 9.981609999999999872e+00 2.061020000000000074e+00 3.632519999999999971e+00 1.034880000000000067e+01 -1.234000000000000027e-02 3.998860000000000081e+00 1.379340000000000011e+01 2.483800000000000008e+00 6.992500000000000382e-01 1.364959999999999951e+01 4.954900000000000304e+00 4.033890000000000420e+00 1.431579999999999941e+01 6.342419999999999725e+00 2.703400000000000247e-01 1.386209999999999987e+01 -2.126469999999999860e+00 5.516090000000000160e+00 1.924749999999999872e+01 -1.486089999999999911e+00 4.541680000000000383e+00 1.739349999999999952e+01 1.883490000000000109e+00 4.071480000000000210e+00 1.708409999999999940e+01 4.412410000000000387e+00 8.147799999999999487e-01 1.776350000000000051e+01
1.466949999999999976e+00 6.112999999999999545e-01 1.170689999999999920e+01 -2.359300000000000008e-01 3.815040000000000209e+00 1.061839999999999939e+01 5.971659999999999968e+00 7.397799999999999931e-01 1.212279999999999980e+01 4.220550000000000246e+00 3.915900000000000158e+00 1.075270000000000081e+01 4.739169999999999661e+00 6.580639999999999823e+00 1.553570000000000029e+01 -9.292399999999999549e-01 4.129360000000000142e+00 1.599440000000000062e+01 5.167220000000000368e+00 6.328099999999999836e-01 6.042000000000000148e-02 3.214379999999999793e+00 3.329839999999999911e+00 1.525849999999999973e+01 7.986950000000000216e+00 2.509000000000000119e-02 1.047700000000000031e+01 6.348740000000000272e+00 2.945310000000000095e+00 9.577980000000000160e+00 5.902000000000000302e-02 6.517059999999999853e+00 1.062219999999999942e+01 2.219679999999999875e+00 2.749639999999999862e+00 9.787280000000000868e+00 -1.166299999999999976e-01 3.202869999999999884e+00 1.309960000000000058e+01 1.870449999999999946e+00 3.111300000000000177e-01 1.411289999999999978e+01 4.678819999999999979e+00 3.002219999999999889e+00 1.310950000000000060e+01 2.272470000000000212e+00 6.152969999999999828e+00 1.480949999999999989e+01 8.737800000000000011e-01 2.492259999999999920e+00 1.688879999999999981e+01 -8.959500000000000242e-01 3.335329999999999906e+00 4.607700000000000129e-01 7.637590000000000323e+00 1.334240000000000093e+00 1.962300000000000111e+01 5.429570000000000007e+00 4.091700000000000337e+00 1.688569999999999993e+01
2.450909999999999922e+00 1.635699999999999932e+00 1.118999999999999950e+01 5.368199999999999639e-01 5.368990000000000151e+00 1.193399999999999928e+01 5.942409999999999748e+00 1.717030000000000056e+00 1.202120000000000033e+01 4.664290000000000269e+00 5.760100000000000442e+00 1.196979999999999933e+01 3.051740000000000119e+00 6.953949999999999854e+00 1.638240000000000052e+01 5.469850000000000101e+00 3.321880000000000166e+00 1.529589999999999961e+01 3.563000000000000167e+00 6.590899999999999537e-01 1.621869999999999834e+01 1.320300000000000029e+00 3.233569999999999833e+00 1.589209999999999923e+01 3.658000000000000140e-01 3.907499999999999862e-01 1.038599999999999923e+01 -1.610460000000000003e+00 4.113139999999999574e+00 1.087320000000000064e+01 4.470290000000000319e+00 9.023000000000000465e-02 1.047160000000000046e+01 2.568309999999999871e+00 4.216890000000000249e+00 1.074980000000000047e+01 -6.352799999999999558e-01 1.886209999999999942e+00 1.447749999999999915e+01 -2.809499999999999886e+00 5.847550000000000026e+00 1.441549999999999976e+01 3.021170000000000133e+00 2.087499999999999911e+00 1.378170000000000073e+01 6.618300000000000294e-01 6.143839999999999968e+00 1.454860000000000042e+01 1.210050000000000070e+00 9.405000000000000027e-01 1.773860000000000170e+01 4.386540000000000106e+00 2.575279999999999792e+00 1.749200000000000088e+01 1.098629999999999995e+00 7.290289999999999715e+00 1.780910000000000082e+01 1.914150000000000018e+00 3.881510000000000016e+00 1.835340000000000060e+01
1.841609999999999969e+00 1.368219999999999992e+00 1.173300000000000054e+01 -1.185200000000000004e-01 4.734709999999999752e+00 1.211400000000000077e+01 6.142850000000000144e+00 1.106300000000000061e+00 1.206489999999999974e+01 4.272590000000000110e+00 4.549059999999999881e+00 1.211139999999999972e+01 7.999939999999999607e+00 1.659599999999999964e-01 1.641110000000000113e+01 -1.723370000000000068e+00 3.848949999999999871e+00 1.561930000000000085e+01 4.210519999999999818e+00 1.152500000000000052e-01 1.587979999999999947e+01 2.238830000000000098e+00 3.745000000000000107e+00 1.546909999999999918e+01 4.053370000000000140e+00 6.957970000000000432e+00 1.071749999999999936e+01 6.390760000000000218e+00 3.488919999999999799e+00 1.069490000000000052e+01 -2.053500000000000048e-01 7.056540000000000035e+00 1.070079999999999920e+01 2.013090000000000046e+00 3.773870000000000058e+00 1.053700000000000081e+01 1.896299999999999930e-01 2.544290000000000163e+00 1.390779999999999994e+01 -1.909340000000000037e+00 6.050139999999999851e+00 1.421669999999999945e+01 4.551239999999999952e+00 2.653270000000000017e+00 1.410190000000000055e+01 2.206580000000000208e+00 6.109820000000000029e+00 1.410720000000000063e+01 1.696350000000000025e+00 4.467999999999999750e-02 1.816649999999999920e+01 7.054499999999999993e+00 2.105700000000000127e+00 1.748320000000000007e+01 -8.304200000000000470e-01 5.479110000000000369e+00 1.795250000000000057e+01 2.026170000000000027e+00 4.673820000000000086e+00 1.782250000000000156e+01
2.011369999999999880e+00 6.584400000000000253e-01 1.180530000000000079e+01 4.466600000000000015e-01 3.962489999999999846e+00 1.115579999999999927e+01 6.535549999999999748e+00 8.873900000000000121e-01 1.111839999999999939e+01 4.372650000000000148e+00 3.891309999999999825e+00 1.138129999999999953e+01 1.695699999999999985e-01 9.740000000000000394e-03 1.504710000000000036e+01 6.353329999999999700e+00 3.317689999999999806e+00 1.571080000000000076e+01 5.209360000000000213e+00 1.613300000000000012e-01 1.071250000000000036e+00 2.063880000000000159e+00 3.524519999999999875e+00 1.527459999999999951e+01 4.840080000000000382e+00 5.863660000000000316e+00 9.809590000000000032e+00 -1.791069999999999940e+00 3.140420000000000211e+00 9.751689999999999969e+00 4.242639999999999745e+00 7.864999999999999769e-02 1.025740000000000052e+01 2.434109999999999996e+00 2.634419999999999984e+00 9.968280000000000030e+00 -1.264599999999999891e-01 1.860919999999999908e+00 1.306920000000000037e+01 -1.759360000000000035e+00 4.787040000000000184e+00 1.329780000000000051e+01 3.857169999999999987e+00 2.340860000000000163e+00 1.393590000000000018e+01 2.345660000000000078e+00 6.010819999999999830e+00 1.427669999999999995e+01 2.410700000000000065e-01 2.549760000000000026e+00 1.702550000000000097e+01 -8.815899999999999848e-01 4.366710000000000313e+00 2.004400000000000071e-01 5.564770000000000216e+00 2.989780000000000104e+00 7.156999999999999473e-02 4.123700000000000365e+00 4.908909999999999663e+00 1.704149999999999920e+01
2.122149999999999981e+00 1.312289999999999957e+00 1.189990000000000059e+01 -3.457399999999999918e-01 4.762220000000000120e+00 1.180930000000000035e+01 6.164109999999999978e+00 1.522199999999999998e+00 1.198129999999999917e+01 3.742750000000000021e+00 5.324060000000000237e+00 1.215659999999999918e+01 3.283599999999999852e-01 2.209500000000000075e-01 1.569609999999999950e+01 5.899949999999999584e+00 3.575110000000000010e+00 1.530700000000000038e+01 1.354499999999999871e-01 6.959089999999999776e+00 1.642269999999999897e+01 2.436469999999999914e+00 3.473269999999999857e+00 1.565509999999999913e+01 1.075600000000000028e-01 4.648700000000000054e-01 1.053279999999999994e+01 5.623969999999999914e+00 3.914140000000000175e+00 1.077769999999999939e+01 4.208190000000000097e+00 1.052000000000000018e-01 1.075750000000000028e+01 1.846249999999999947e+00 3.730960000000000054e+00 1.094330000000000069e+01 -1.616799999999999904e-01 2.411010000000000097e+00 1.410740000000000016e+01 -1.824940000000000007e+00 6.171109999999999651e+00 1.383929999999999971e+01 4.132609999999999673e+00 1.799560000000000048e+00 1.422940000000000005e+01 2.124559999999999782e+00 5.755289999999999573e+00 1.432579999999999920e+01 3.586679999999999868e+00 6.831129999999999924e+00 1.805189999999999984e+01 3.875239999999999796e+00 3.483639999999999848e+00 1.795589999999999975e+01 5.952230000000000132e+00 9.576000000000000068e-01 1.817810000000000059e+01 1.809639999999999915e+00 1.526960000000000095e+00 1.743120000000000047e+01
2.375649999999999817e+00 6.587499999999999467e-01 1.192530000000000001e+01 4.542300000000000226e-01 4.249229999999999841e+00 1.163930000000000042e+01 6.626890000000000391e+00 1.067199999999999926e+00 1.226849999999999952e+01 4.655850000000000044e+00 4.274020000000000152e+00 1.180230000000000068e+01 3.112839999999999829e+00 5.960510000000000197e+00 1.772629999999999839e+01 6.651729999999999698e+00 2.691559999999999953e+00 1.635630000000000095e+01 -9.492599999999999927e-01 6.860940000000000261e+00 1.555899999999999928e+01 2.003709999999999880e+00 3.914670000000000094e+00 1.491670000000000051e+01 4.440549999999999997e+00 6.576900000000000190e+00 1.068520000000000003e+01 -1.428320000000000034e+00 3.523190000000000044e+00 1.058450000000000024e+01 6.240499999999999936e-01 6.720259999999999678e+00 1.078769999999999918e+01 2.448920000000000208e+00 3.188849999999999962e+00 1.055160000000000053e+01 -5.753000000000000336e-01 4.512389999999999901e+00 1.411430000000000007e+01 1.317579999999999973e+00 1.252110000000000056e+00 1.420819999999999972e+01 3.603270000000000195e+00 5.667200000000000237e+00 1.377909999999999968e+01 5.150260000000000282e+00 2.235289999999999999e+00 1.402420000000000044e+01 -2.939560000000000173e+00 6.597299999999999720e+00 1.743720000000000070e+01 5.789469999999999672e+00 4.534909999999999997e+00 1.841819999999999879e+01 1.413170000000000037e+00 4.028660000000000352e+00 1.737559999999999860e+01 4.940859999999999808e+00 5.562500000000000222e-01 1.728259999999999863e+01
2.025409999999999933e+00 9.448499999999999677e-01 1.208130000000000059e+01 3.895700000000000274e-01 4.306739999999999569e+00 1.203500000000000014e+01 6.336879999999999846e+00 1.053830000000000044e+00 1.160599999999999987e+01 4.256470000000000198e+00 4.418249999999999567e+00 1.209629999999999939e+01 4.195050000000000168e+00 6.400360000000000049e+00 1.629720000000000013e+01 -1.869650000000000034e+00 3.721159999999999801e+00 1.517609999999999992e+01 9.039099999999999913e-01 6.723679999999999879e+00 1.650900000000000034e+01 2.395560000000000134e+00 3.325320000000000054e+00 1.511079999999999934e+01 4.661360000000000170e+00 6.629970000000000141e+00 1.071690000000000076e+01 -2.027530000000000054e+00 3.535629999999999828e+00 1.085970000000000013e+01 1.517000000000000015e-01 6.584649999999999892e+00 1.073520000000000074e+01 2.360149999999999970e+00 3.168320000000000025e+00 1.065910000000000046e+01 1.624400000000000011e-01 2.215520000000000156e+00 1.398370000000000068e+01 -1.680819999999999981e+00 6.098819999999999908e+00 1.455899999999999928e+01 4.501960000000000406e+00 2.296689999999999898e+00 1.396429999999999971e+01 2.349810000000000176e+00 5.654219999999999580e+00 1.376379999999999981e+01 1.543099999999999916e+00 1.097900000000000098e+00 1.800609999999999999e+01 -1.897939999999999960e+00 3.512350000000000083e+00 1.773229999999999862e+01 -9.526599999999999513e-01 5.756149999999999878e+00 1.845769999999999911e+01 2.192429999999999879e+00 3.446860000000000035e+00 1.771610000000000085e+01
2.382779999999999898e+00 1.099059999999999926e+00 1.186500000000000021e+01 2.986400000000000166e-01 4.591199999999999726e+00 1.141569999999999929e+01 6.642050000000000232e+00 1.247840000000000060e+00 1.213499999999999979e+01 4.536030000000000229e+00 4.717830000000000190e+00 1.215070000000000050e+01 -3.489669999999999828e+00 6.841660000000000075e+00 1.572780000000000022e+01 -1.648989999999999956e+00 3.779339999999999922e+00 1.545560000000000045e+01 2.816159999999999997e+00 6.875799999999999690e-01 1.819419999999999860e+01 2.414569999999999883e+00 3.910759999999999792e+00 1.524319999999999986e+01 -3.909600000000000186e+00 7.058300000000000018e+00 1.076870000000000083e+01 -1.951249999999999929e+00 3.567169999999999952e+00 1.064400000000000013e+01 4.608749999999999680e+00 6.815999999999999837e-02 1.075089999999999968e+01 2.672930000000000028e+00 3.411820000000000075e+00 1.058689999999999998e+01 3.580400000000000249e-01 2.991439999999999877e+00 1.361400000000000077e+01 -1.474560000000000093e+00 6.524540000000000006e+00 1.411270000000000024e+01 4.718029999999999724e+00 2.566349999999999909e+00 1.391949999999999932e+01 2.792640000000000011e+00 6.387360000000000149e+00 1.421649999999999991e+01 1.162570000000000103e+00 6.495849999999999902e+00 1.831629999999999825e+01 -2.772460000000000147e+00 4.986710000000000420e+00 1.740200000000000102e+01 -7.649999999999999682e-03 1.976580000000000004e+00 1.709329999999999927e+01 2.110949999999999882e+00 4.413590000000000124e+00 1.784690000000000154e+01
2.283409999999999940e+00 1.284129999999999994e+00 1.187729999999999997e+01 1.561599999999999933e-01 4.585820000000000007e+00 1.252740000000000009e+01 6.322980000000000267e+00 1.155399999999999983e+00 1.170589999999999975e+01 4.274910000000000210e+00 4.728570000000000384e+00 1.206010000000000026e+01 3.984560000000000102e+00 7.120420000000000194e+00 1.602520000000000167e+01 5.918490000000000251e+00 3.221049999999999969e+00 1.548220000000000063e+01 5.610000000000000403e-03 7.044190000000000396e+00 1.548119999999999941e+01 1.747989999999999933e+00 3.261620000000000186e+00 1.657120000000000104e+01 -3.874049999999999994e+00 7.054499999999999993e+00 1.068050000000000033e+01 -1.797690000000000010e+00 3.700029999999999930e+00 1.070410000000000039e+01 2.648000000000000007e-02 6.989959999999999951e+00 1.092570000000000086e+01 2.122840000000000060e+00 3.756079999999999863e+00 1.072129999999999939e+01 -2.824999999999999734e-01 2.138770000000000060e+00 1.373329999999999984e+01 -2.278880000000000017e+00 5.697079999999999700e+00 1.407130000000000081e+01 3.678720000000000212e+00 2.195800000000000196e+00 1.422639999999999993e+01 1.953009999999999913e+00 5.655560000000000365e+00 1.427580000000000027e+01 5.944840000000000124e+00 1.209519999999999929e+00 1.715840000000000032e+01 -1.637469999999999981e+00 4.356080000000000396e+00 1.810279999999999845e+01 -1.007060000000000066e+00 6.627019999999999911e+00 1.780180000000000007e+01 3.915639999999999787e+00 4.753870000000000040e+00 1.752060000000000173e+01
2.067520000000000024e+00 1.213859999999999939e+00 1.168599999999999994e+01 -4.619400000000000173e-01 4.270730000000000359e+00 1.166140000000000043e+01 6.011759999999999771e+00 7.452999999999999625e-01 1.148359999999999914e+01 3.746840000000000170e+00 4.383860000000000312e+00 1.123700000000000010e+01 3.936430000000000096e+00 6.981919999999999682e+00 1.481700000000000017e+01 -1.953640000000000043e+00 3.854929999999999968e+00 1.543369999999999997e+01 4.999349999999999739e+00 4.685000000000000275e-02 1.085350000000000037e+00 2.286970000000000169e+00 4.235899999999999999e+00 1.479480000000000040e+01 4.199770000000000003e+00 6.853679999999999772e+00 1.054850000000000065e+01 5.936040000000000205e+00 2.879300000000000193e+00 1.019490000000000052e+01 -2.782899999999999818e-01 6.815419999999999590e+00 1.044759999999999955e+01 1.710239999999999982e+00 3.335609999999999964e+00 1.001600000000000001e+01 3.222599999999999909e-01 2.328800000000000203e+00 1.337679999999999936e+01 -1.886609999999999898e+00 6.207919999999999661e+00 1.396119999999999983e+01 3.647100000000000009e+00 2.693690000000000140e+00 1.350450000000000017e+01 1.611269999999999980e+00 6.685629999999999740e+00 1.374789999999999957e+01 4.657700000000000173e-01 3.664629999999999832e+00 1.642810000000000059e+01 -9.403599999999999737e-01 4.819589999999999819e+00 4.012999999999999901e-01 5.989969999999999573e+00 3.021900000000000031e+00 1.995560000000000045e+01 3.994740000000000180e+00 4.853509999999999991e+00 1.665490000000000137e+01
1.805220000000000047e+00 1.659219999999999917e+00 1.202410000000000068e+01 -3.925799999999999845e-01 5.338709999999999845e+00 1.197719999999999985e+01 5.861749999999999794e+00 1.391450000000000076e+00 1.204630000000000045e+01 3.643829999999999902e+00 5.215309999999999668e+00 1.202100000000000080e+01 7.704199999999999937e-01 3.709100000000000175e-01 1.703979999999999961e+01 5.668549999999999756e+00 3.107040000000000024e+00 1.559249999999999936e+01 -3.399900000000000144e-01 6.594400000000000261e+00 1.611060000000000159e+01 1.714399999999999924e+00 3.695730000000000182e+00 1.517709999999999937e+01 -2.122999999999999887e-02 2.274100000000000010e-01 1.065320000000000000e+01 5.709060000000000024e+00 3.847910000000000164e+00 1.078909999999999947e+01 3.794890000000000096e+00 3.068199999999999816e-01 1.073019999999999996e+01 1.412730000000000041e+00 3.837439999999999962e+00 1.045429999999999993e+01 -1.697500000000000120e-01 2.095219999999999860e+00 1.427369999999999983e+01 -2.390340000000000131e+00 5.682890000000000441e+00 1.422560000000000002e+01 3.592439999999999856e+00 1.865159999999999929e+00 1.407140000000000057e+01 1.794110000000000094e+00 6.024670000000000414e+00 1.393870000000000076e+01 4.343429999999999680e+00 4.298259999999999970e+00 1.744920000000000115e+01 -4.731899999999999995e-01 3.965120000000000200e+00 1.773260000000000147e+01 4.302929999999999922e+00 1.131280000000000063e+00 1.778770000000000095e+01 1.965929999999999955e+00 4.663520000000000110e+00 1.742970000000000041e+01
2.495680000000000121e+00 6.240299999999999736e-01 1.189550000000000018e+01 8.470199999999999951e-01 4.867160000000000153e+00 1.217029999999999923e+01 6.700079999999999814e+00 1.302219999999999933e+00 1.145589999999999975e+01 5.025179999999999758e+00 4.071080000000000254e+00 1.125140000000000029e+01 2.350000000000000092e-03 2.819069999999999965e+00 1.916969999999999885e+01 5.584360000000000213e+00 4.310410000000000075e+00 1.557540000000000013e+01 7.645199999999999774e-01 7.231950000000000323e+00 1.614249999999999829e+01 1.896840000000000082e+00 3.512550000000000061e+00 1.520609999999999928e+01 4.424690000000000012e+00 6.537889999999999979e+00 1.063930000000000042e+01 -1.097539999999999960e+00 3.427569999999999784e+00 9.880259999999999820e+00 4.651899999999999924e-01 6.984090000000000131e+00 1.063080000000000069e+01 2.792380000000000084e+00 3.049529999999999852e+00 1.051909999999999989e+01 5.730399999999999938e-01 1.671839999999999993e+00 1.406099999999999994e+01 -9.915800000000000169e-01 5.958129999999999704e+00 1.402810000000000024e+01 5.627550000000000274e+00 2.527239999999999931e+00 1.338100000000000023e+01 2.815980000000000150e+00 5.826620000000000132e+00 1.435999999999999943e+01 6.742530000000000356e+00 1.074330000000000007e+00 1.796079999999999899e+01 3.049020000000000064e+00 2.395770000000000177e+00 1.703950000000000031e+01 1.358810000000000073e+00 6.729129999999999612e+00 1.883289999999999864e+01 -4.049400000000000222e-01 4.332880000000000287e+00 1.694480000000000075e+01
3.230710000000000193e+00 1.319329999999999892e+00 1.125510000000000055e+01 9.355299999999999727e-01 4.912180000000000213e+00 1.209490000000000087e+01 6.937929999999999708e+00 1.406120000000000037e+00 1.230809999999999960e+01 -2.901349999999999874e+00 5.116799999999999571e+00 1.125900000000000034e+01 2.565500000000000003e-01 1.568300000000000027e+00 1.808510000000000062e+01 5.582849999999999646e+00 3.482419999999999849e+00 1.563599999999999923e+01 3.984970000000000123e+00 3.625599999999999934e-01 1.526859999999999928e+01 1.573909999999999920e+00 3.465230000000000032e+00 1.538219999999999921e+01 9.747599999999999598e-01 2.560600000000000098e-01 1.067290000000000028e+01 -8.207400000000000251e-01 3.611800000000000122e+00 1.094069999999999965e+01 8.267099999999999449e-01 7.201979999999999826e+00 1.049540000000000006e+01 2.733709999999999862e+00 3.907469999999999999e+00 1.049450000000000038e+01 -2.758599999999999941e-01 1.683519999999999905e+00 1.456419999999999959e+01 -1.686579999999999968e+00 5.817929999999999602e+00 1.393679999999999986e+01 4.242370000000000196e+00 2.506699999999999928e+00 1.337439999999999962e+01 2.272889999999999855e+00 5.624600000000000044e+00 1.415549999999999997e+01 4.692000000000000060e-01 6.912320000000000242e+00 1.802179999999999893e+01 3.593339999999999979e+00 2.860970000000000013e+00 1.712770000000000081e+01 -1.317120000000000068e+00 7.307970000000000077e+00 1.954390000000000072e+01 -4.590099999999999736e-01 4.433589999999999698e+00 1.724449999999999861e+01
1.772669999999999968e+00 2.804149999999999920e+00 9.697779999999999845e+00 3.056569999999999787e+00 5.772470000000000212e+00 1.120870000000000033e+01 5.529609999999999914e+00 2.896079999999999988e+00 1.058440000000000047e+01 2.889069999999999805e+00 6.239440000000000097e+00 1.510110000000000063e+01 1.835700000000000109e+00 2.956319999999999837e+00 1.730470000000000041e+01 1.682260000000000089e+00 2.686209999999999987e+00 1.263090000000000046e+01 6.486399999999999721e+00 5.842200000000000060e+00 1.719440000000000168e+01 2.886460000000000026e+00 6.156450000000000422e+00 1.890879999999999939e+01 6.960759999999999614e+00 1.224660000000000082e+00 8.973739999999999384e+00 2.925129999999999786e+00 1.015009999999999968e+00 1.122560000000000002e+01 4.165199999999999569e+00 3.925429999999999975e+00 1.283489999999999931e+01 4.147009999999999863e+00 4.497910000000000075e+00 8.835419999999999163e+00 7.732440000000000424e+00 4.671969999999999956e+00 1.107070000000000043e+01 6.056869999999999976e+00 1.568089999999999984e+00 1.721030000000000015e+01 7.642730000000000246e+00 4.518530000000000157e+00 1.518549999999999933e+01 6.372220000000000439e+00 1.177249999999999908e+00 1.310060000000000002e+01 7.694139999999999979e+00 4.561359999999999637e+00 1.923979999999999890e+01 3.918410000000000171e+00 4.461339999999999861e+00 1.673829999999999885e+01 2.782890000000000086e+00 1.217200000000000060e+00 1.496690000000000076e+01 2.898010000000000197e+00 1.119350000000000067e+00 1.927060000000000173e+01