-2.372190000000000132e-01 -5.426600000000000174e-02 1.241020000000000040e-01 -3.030450000000000088e-01 -7.094200000000000506e-01 -9.134299999999999364e-02 -1.855539999999999967e-01 3.328249999999999820e-01 -8.330200000000000105e-02 1.220180000000000015e-01 -2.154709999999999959e-01 -1.838639999999999997e-01 1.589039999999999897e-01 -2.653940000000000188e-01 1.132390000000000063e-01 -5.846189999999999998e-01 6.054150000000000365e-01 -6.824419999999999931e-01 -7.976729999999999654e-01 2.892899999999999916e-01 4.645029999999999992e-01 2.736149999999999971e-01 -2.869389999999999996e-01 7.814899999999999625e-02 5.146709999999999896e-01 -9.555099999999999705e-02 -1.433490000000000042e-01 1.304800000000000057e-02 9.646699999999999720e-02 3.686769999999999770e-01 3.295080000000000231e-01 4.022040000000000060e-01 -2.875550000000000050e-01 -8.509400000000000297e-02 -7.900000000000000121e-04 7.129499999999999726e-01 2.879340000000000233e-01 6.621960000000000068e-01 -3.365529999999999911e-01 1.360280000000000100e-01 -5.321360000000000534e-01 5.372699999999999698e-02 -1.453440000000000010e-01 -4.549230000000000218e-01 1.057619999999999949e-01 1.018639999999999962e-01 -7.021900000000000364e-02 -2.285889999999999866e-01 4.961800000000000238e-02 8.282479999999999842e-01 1.726119999999999877e-01 -4.794280000000000208e-01 3.891749999999999932e-01 -5.187300000000000244e-02 3.201140000000000096e-01 1.088080000000000019e-01 3.622469999999999857e-01 5.106519999999999948e-01 -1.029519000000000073e+00 -4.670969999999999844e-01
4.639030000000000098e-01 -7.542000000000000093e-02 -2.918830000000000036e-01 5.536680000000000490e-01 4.994770000000000043e-01 -1.900310000000000055e-01 1.501300000000000030e-02 -9.319039999999999546e-01 2.028010000000000090e-01 -2.554420000000000024e-01 1.253999999999999906e-03 1.467360000000000053e-01 1.939019999999999910e-01 1.798119999999999996e-01 3.095399999999999888e-02 -2.827599999999999905e-02 -3.433280000000000221e-01 5.963580000000000547e-01 -5.166599999999999665e-02 2.448629999999999973e-01 -1.266349999999999976e-01 2.313080000000000136e-01 -2.851790000000000158e-01 5.513700000000000268e-01 -4.177130000000000010e-01 3.915150000000000019e-01 3.654099999999999709e-02 -1.074886999999999926e+00 -5.371529999999999916e-01 -7.500170000000000448e-01 4.179459999999999842e-01 2.678220000000000045e-01 -1.090030000000000027e-01 -9.668400000000000605e-02 -1.380490000000000050e-01 1.453699999999999992e-01 -3.498310000000000031e-01 2.874209999999999821e-01 2.531200000000000117e-01 -1.477769999999999917e-01 3.503760000000000208e-01 -3.137969999999999926e-01 -3.395679999999999810e-01 -3.813400000000000123e-02 -1.875729999999999897e-01 6.930990000000000206e-01 -1.983400000000000094e-02 6.049259999999999637e-01 1.660122000000000098e+00 2.889559999999999906e-01 2.387019999999999975e-01 -3.010329999999999950e-01 -2.682410000000000072e-01 -3.240569999999999840e-01 -1.345042999999999989e+00 1.023229999999999973e-01 -5.968400000000000094e-02 1.789590000000000070e-01 2.342500000000000138e-02 -4.541979999999999906e-01
2.961980000000000168e-01 4.801600000000000312e-02 -3.950529999999999875e-01 3.342169999999999863e-01 6.567119999999999624e-01 -6.515999999999999570e-02 -1.977100000000000038e-02 -2.075750000000000095e-01 -1.522620000000000084e-01 2.173519999999999897e-01 6.577640000000000153e-01 -2.322780000000000122e-01 -2.236499999999999946e-02 -3.821019999999999972e-01 -9.110100000000000142e-02 -6.754679999999999573e-01 1.805218999999999907e+00 -6.685489999999999489e-01 4.290240000000000165e-01 4.478380000000000138e-01 5.982680000000000220e-01 1.398939999999999906e-01 1.255910000000000082e-01 -1.278685999999999989e+00 2.995369999999999977e-01 -7.362319999999999975e-01 4.235550000000000148e-01 -6.111450000000000493e-01 7.642500000000000682e-02 -7.169200000000000572e-02 -1.374579999999999969e-01 -4.283640000000000225e-01 8.803050000000000042e-01 -2.254390000000000005e-01 2.405600000000000099e-02 3.892889999999999961e-01 4.938500000000000112e-01 -2.090940000000000021e-01 -8.662189999999999612e-01 -1.411389999999999867e-01 -1.817930000000000101e-01 -3.957820000000000227e-01 2.581299999999999914e-02 -1.638290000000000024e-01 3.025930000000000009e-01 1.373129999999999906e-01 2.841620000000000257e-01 -2.409890000000000088e-01 -1.066977000000000064e+00 -1.606495000000000006e+00 7.051380000000000425e-01 -1.730720000000000036e+00 9.357750000000000234e-01 1.318815000000000071e+00 8.182399999999999396e-02 6.955100000000000171e-02 -4.136830000000000229e-01 2.175457999999999892e+00 -1.215624000000000038e+00 2.534899999999999931e-01
5.060000000000000478e-04 3.278269999999999795e-01 -6.243790000000000173e-01 -2.249720000000000053e-01 4.392179999999999973e-01 -4.049099999999999921e-01 -1.835620000000000029e-01 4.073149999999999826e-01 -5.138949999999999907e-01 -7.914599999999999413e-02 1.994259999999999922e-01 -6.140060000000000517e-01 3.107889999999999819e-01 3.119600000000000151e-02 1.228849999999999942e-01 -7.020079999999999654e-01 5.939440000000000275e-01 5.290230000000000210e-01 2.077410000000000090e-01 -2.465350000000000041e-01 -1.078899999999999998e-01 6.087770000000000126e-01 7.565700000000000203e-02 -9.705540000000000278e-01 1.335010000000000085e-01 -1.104499999999999926e-02 5.811899999999999705e-02 6.132499999999999757e-02 -2.257879999999999887e-01 1.711380000000000123e-01 -6.164100000000000135e-02 1.199199999999999988e-01 1.199700000000000072e-02 4.546999999999999827e-03 -6.045589999999999575e-01 3.362339999999999773e-01 2.486440000000000039e-01 -2.146740000000000037e-01 4.610230000000000161e-01 2.916630000000000056e-01 -5.851399999999999935e-01 8.760199999999999931e-02 1.550140000000000129e-01 -4.895809999999999884e-01 6.082499999999999574e-01 -1.262320000000000109e-01 3.722000000000000308e-02 3.200890000000000124e-01 -2.325290000000000135e-01 2.181279999999999886e-01 2.650910000000000211e-01 -3.118440000000000101e-01 1.138669999999999960e-01 -9.409199999999999509e-02 -4.997510000000000008e-01 1.573400000000000146e-02 4.097330000000000139e-01 3.991790000000000060e-01 -2.021300000000000041e-01 -5.145899999999999780e-02
-1.320829999999999949e+00 1.599650999999999934e+00 -2.598332999999999782e+00 -6.643599999999999506e-02 -1.839659999999999906e-01 4.243219999999999770e-01 1.704560999999999993e+00 3.661139999999999950e-01 1.349725000000000064e+00 -5.649809999999999555e-01 -1.514560000000000073e-01 -1.335999999999999965e-01 1.155810000000000032e-01 3.456100000000000144e-02 -1.199540000000000051e-01 1.382705000000000073e+00 9.278419999999999446e-01 -2.699380000000000113e-01 -1.000177000000000094e+00 1.289349999999999996e+00 5.009639999999999649e-01 6.058230000000000004e-01 -1.022602000000000011e+00 -8.338259999999999561e-01 -5.302740000000000231e-01 2.868370000000000086e-01 -6.217770000000000241e-01 3.770149999999999890e-01 1.868039999999999978e-01 -6.197199999999999931e-02 -5.484569999999999723e-01 -1.065957000000000043e+00 -1.335161000000000042e+00 6.038179999999999659e-01 -2.502030000000000087e-01 2.354799999999999949e-01 -5.589730000000000532e-01 -1.690780000000000061e-01 -1.293159999999999865e-01 4.019909999999999872e-01 -1.431149999999999922e-01 3.614097999999999811e+00 -6.164979999999999905e-01 -2.980419999999999736e-01 2.001590000000000036e-01 8.057469999999999910e-01 1.974710000000000076e-01 -6.496920000000000472e-01 -1.104854999999999920e+00 1.218599999999999905e+00 2.203864999999999963e+00 -7.937600000000000211e-02 -1.538154999999999939e+00 -2.207946999999999882e+00 9.577800000000000202e-02 -2.966199999999999948e-01 5.711030000000000273e-01 2.978359999999999896e-01 -9.880370000000000541e-01 -1.381989999999999885e-01
3.129359999999999919e-01 8.346090000000000453e-01 -1.049361999999999906e+00 6.327340000000000186e-01 6.852719999999999922e-01 2.825989999999999891e-01 -1.499500000000000000e-01 2.187780000000000002e-01 4.557590000000000252e-01 4.455790000000000028e-01 7.872860000000000413e-01 -7.565800000000000303e-02 -6.396599999999999508e-02 1.481879999999999864e-01 4.308759999999999812e-01 4.604170000000000207e-01 6.024999999999999800e-02 -1.252691999999999917e+00 -8.385000000000000231e-01 -1.223039999999999961e-01 1.635350000000000137e-01 -9.443150000000000155e-01 1.291069999999999995e-01 2.875400000000000178e-01 -7.309499999999999331e-02 -7.297190000000000065e-01 4.782900000000000346e-02 -3.324119999999999853e-01 -1.905679999999999874e-01 -3.084529999999999772e-01 -3.011499999999999941e-02 -4.179910000000000014e-01 -1.742660000000000042e-01 -1.667933000000000110e+00 -3.706090000000000217e-01 -2.378230000000000066e-01 6.426000000000000288e-03 -5.408469999999999667e-01 8.063339999999999952e-01 1.077750999999999904e+00 -5.270890000000000297e-01 1.105782000000000043e+00 7.018729999999999691e-01 -2.248330000000000051e-01 2.299559999999999937e-01 3.656209999999999738e-01 -1.110949999999999993e-01 -2.989160000000000150e-01 2.365530000000000133e-01 -5.531040000000000401e-01 -1.069480000000000014e-01 -6.630700000000000482e-02 1.883048000000000055e+00 9.044400000000000217e-01 9.129399999999999737e-01 -1.596983000000000041e+00 -1.187537000000000065e+00 -9.862370000000000303e-01 6.386039999999999495e-01 -2.299599999999999908e-02
-1.210409999999999958e-01 -2.414669999999999872e-01 9.598700000000000288e-02 -4.832250000000000156e-01 2.974820000000000242e-01 6.020609999999999573e-01 6.102530000000000454e-01 -2.297399999999999998e-01 2.576399999999999801e-01 -4.764120000000000021e-01 -1.635189999999999977e-01 -1.312243999999999966e+00 1.474569999999999936e+00 1.726419999999999899e-01 -1.061574999999999935e+00 -1.070460000000000023e-01 4.378389999999999782e-01 -7.521700000000000053e-01 -1.256841000000000097e+00 -2.157773999999999859e+00 -9.800900000000000167e-01 -3.655660000000000021e-01 2.875079999999999858e-01 -2.072410000000000085e-01 -2.273930000000000118e-01 -5.568279999999999896e-01 8.235540000000000083e-01 7.790999999999999315e-02 3.918519999999999781e-01 -1.199719999999999953e-01 1.555819999999999981e-01 -1.334039999999999948e-01 -2.057070000000000010e-01 3.625360000000000249e-01 6.177219999999999933e-01 -1.477849999999999997e-01 -2.363959999999999950e-01 -3.060399999999999926e-02 -2.216259999999999897e-01 -4.195289999999999853e-01 -4.093000000000000284e-03 9.178349999999999564e-01 6.490449999999999831e-01 1.925320000000000087e-01 1.341180000000000039e+00 5.102200000000000069e-01 -5.698990000000000444e-01 -2.269650000000000001e-01 1.749999999999999889e-01 -9.236149999999999638e-01 -9.334970000000000212e-01 6.664799999999999613e-01 1.779862999999999973e+00 1.477244999999999919e+00 -1.252957000000000098e+00 2.275399999999999992e-02 1.102017999999999942e+00 2.648099999999999898e-01 8.107499999999999707e-01 -4.486479999999999912e-01
-3.822740000000000027e-01 -2.017940000000000011e-01 -4.083049999999999735e-01 1.854599999999999999e-02 2.436899999999999830e-02 -1.364430000000000087e-01 -1.592059999999999864e-01 -1.536510000000000098e-01 -4.545989999999999753e-01 -1.921229999999999882e-01 4.348040000000000238e-01 -4.287779999999999925e-01 6.274549999999999850e-01 -2.007556000000000118e+00 -5.856090000000000462e-01 -3.592499999999999860e-02 -1.488800000000000123e-01 -1.274400000000000012e-02 1.554300000000000126e-01 1.364470000000000127e-01 1.574830000000000119e-01 -1.758799999999999947e-02 -1.889440000000000008e-01 -4.041000000000000147e-02 4.132879999999999887e-01 1.744580000000000020e-01 4.558829999999999827e-01 -2.778570000000000206e-01 -1.227150000000000046e-01 3.035070000000000268e-01 4.007979999999999876e-01 2.498140000000000083e-01 5.200399999999999467e-01 1.356789999999999941e-01 -1.692649999999999988e-01 7.846739999999999826e-01 4.643880000000000230e-01 2.079479999999999940e-01 3.244099999999999762e-01 -7.740700000000000358e-02 -5.974999999999999756e-02 -5.021020000000000483e-01 -5.513249999999999540e-01 1.452039999999999997e-01 3.186289999999999956e-01 5.280049999999999466e-01 1.940179999999999960e-01 -7.881000000000000852e-03 -1.158574999999999910e+00 7.683699999999999974e-01 -1.645749999999999991e-01 -9.892199999999999882e-01 1.315406999999999993e+00 8.524199999999999555e-01 5.148509999999999476e-01 -5.851439999999999975e-01 -3.969880000000000075e-01 5.830610000000000515e-01 -1.314000000000000064e-02 -5.786099999999999577e-01
1.002109999999999945e-01 1.054120000000000057e-01 -2.517150000000000221e-01 -4.612660000000000093e-01 -4.734200000000000214e-02 -4.961780000000000079e-01 8.583899999999999864e-01 -2.797529999999999739e-01 -2.170680000000000109e-01 4.078760000000000163e-01 -5.969740000000000046e-01 4.529710000000000125e-01 -2.567829999999999835e-01 -9.637700000000000433e-02 8.472599999999999576e-02 -6.102429999999999799e-01 6.835399999999999809e-02 1.047420000000000018e-01 -9.552900000000000280e-02 2.440360000000000029e-01 -2.410140000000000060e-01 -1.643500000000000169e-02 1.048070000000000057e+00 7.209640000000000493e-01 -6.144209999999999949e-01 1.086295000000000011e+00 7.783430000000000071e-01 1.414729999999999877e-01 -3.048899999999999944e-01 5.933049999999999713e-01 -1.722000000000000006e-03 -9.246910000000000407e-01 1.964470000000000105e-01 -2.545069999999999832e-01 5.882460000000000466e-01 4.006529999999999814e-01 3.260859999999999870e-01 5.628360000000000030e-01 -1.865860000000000019e-01 -3.542130000000000001e-01 6.012159999999999727e-01 4.271699999999999942e-01 3.473740000000000161e-01 -6.584109999999999685e-01 -1.050194000000000072e+00 -7.386449999999999960e-01 -4.886599999999999971e-02 -7.469069999999999876e-01 3.024149999999999894e-01 -2.256000000000000019e-02 -8.314909999999999801e-01 -4.489890000000000270e-01 -6.184500000000000552e-01 -6.151800000000000324e-02 5.762979999999999769e-01 3.455300000000000038e-01 1.805589999999999973e-01 7.926299999999999457e-01 -1.051679000000000030e+00 1.427930000000000033e-01
4.742049999999999876e-01 -4.646989999999999732e-01 8.988909999999999956e-01 3.339130000000000154e-01 1.089617000000000058e+00 6.553609999999999713e-01 -2.136840000000000128e-01 -9.039200000000000013e-02 3.384800000000000308e-02 4.005389999999999784e-01 3.468669999999999809e-01 -9.624800000000000022e-02 1.140690000000000037e-01 -5.028350000000000319e-01 -1.993576999999999932e+00 -4.506640000000000090e-01 6.783489999999999798e-01 7.781949999999999701e-01 -4.767609999999999904e-01 -3.818579999999999752e-01 -3.725769999999999915e-01 2.481579999999999897e-01 -1.198280000000000040e-01 1.001360000000000028e-01 -9.288319999999999910e-01 -7.403769999999999518e-01 1.378109999999999891e-01 -3.954779999999999962e-01 -6.315070000000000405e-01 -4.167859999999999898e-01 1.511840000000000128e-01 -1.257790000000000019e-01 -3.137190000000000256e-01 5.615219999999999656e-01 3.626780000000000004e-01 -5.376239999999999908e-01 8.061380000000000212e-01 -4.943660000000000276e-01 -3.572000000000000175e-01 -1.009331999999999896e+00 -9.531399999999999595e-02 2.942250000000000143e-01 -2.931039999999999757e-01 4.771929999999999783e-01 -2.948709999999999942e-01 3.617420000000000080e-01 3.268789999999999751e-01 2.175570000000000004e-01 1.171189000000000036e+00 -1.614122999999999974e+00 9.037669999999999870e-01 -1.386819999999999997e-01 3.555849999999999844e-01 -7.959680000000000089e-01 -1.268879000000000090e+00 1.516323000000000087e+00 4.117129999999999956e-01 5.527560000000000251e-01 1.075850000000000001e-01 7.470670000000000366e-01
2.256299999999999972e-02 1.172949999999999965e-01 -1.402779999999999916e+00 2.515886000000000067e+00 1.858365000000000045e+00 2.190462000000000131e+00 3.180760000000000254e-01 -9.223559999999999537e-01 -7.340419999999999723e-01 1.894200000000000050e-02 -7.122110000000000385e-01 3.929880000000000040e-01 -9.667369999999999575e-01 -1.684150000000000091e-01 -3.343269999999999853e-01 -1.295900000000000003e-02 1.054230000000000028e-01 4.290649999999999742e-01 5.276760000000000339e-01 -3.787090000000000178e-01 -1.813009999999999899e-01 -1.296470000000000122e-01 4.647600000000000342e-02 -2.497630000000000128e-01 8.496709999999999541e-01 1.653648999999999925e+00 -4.018200000000000105e-01 -4.188989000000000296e+00 -2.251459999999999795e+00 -1.832608999999999932e+00 -4.680699999999999861e-01 1.065239999999999965e+00 3.056159999999999988e-01 1.020869000000000026e+00 -1.082208000000000059e+00 4.837500000000000133e-02 3.337660000000000071e-01 4.777719999999999745e-01 4.746580000000000243e-01 6.667000000000000183e-03 6.850929999999999520e-01 8.397699999999999609e-02 -6.130520000000000413e-01 -2.723650000000000237e-01 9.296950000000000491e-01 -3.830959999999999921e-01 2.347199999999999981e-02 -5.737020000000000453e-01 4.441899999999999737e-01 1.284316000000000013e+00 -1.532419999999999893e-01 7.724000000000000310e-02 -1.240899999999999892e+00 3.200259999999999772e-01 3.396500000000000213e-02 -6.594480000000000341e-01 4.479029999999999956e-01 5.930379999999999541e-01 3.709709999999999952e-01 2.408210000000000073e-01
2.583280000000000021e-01 -1.675959999999999950e-01 4.546140000000000181e-01 -6.658100000000000129e-02 -7.754999999999999741e-03 1.591039999999999954e-01 -3.890460000000000029e-01 -1.943940000000000112e-01 2.377100000000000046e-01 -2.060740000000000072e-01 -3.288090000000000179e-01 2.312549999999999883e-01 2.962589999999999946e-01 1.065159999999999996e-01 1.481949999999999934e-01 -1.282520000000000049e-01 -1.223584999999999923e+00 1.507600000000000051e-01 -1.320010000000000072e-01 2.030200000000000060e-02 -9.298999999999999974e-03 -4.446149999999999824e-01 6.191399999999999681e-02 7.916149999999999576e-01 -2.276370000000000060e-01 -3.016200000000000131e-02 -5.668100000000000360e-01 3.825160000000000227e-01 4.968299999999999800e-02 -1.572770000000000001e-01 3.681619999999999893e-01 8.134700000000000264e-02 -4.011810000000000098e-01 -1.661439999999999861e-01 1.450009999999999910e-01 -2.355029999999999901e-01 1.399899999999999929e-02 3.310089999999999977e-01 1.014909999999999979e-01 8.718199999999999561e-02 1.108797000000000033e+00 -6.267019999999999813e-01 5.916970000000000285e-01 2.378599999999999881e-01 9.289300000000000335e-02 -6.239999999999999887e-04 -1.246450000000000058e-01 -1.539270000000000083e-01 -7.591199999999999337e-02 -9.723800000000000499e-02 2.110579999999999956e-01 4.571900000000000269e-02 1.464640000000000108e-01 2.845079999999999831e-01 -4.065940000000000110e-01 -5.904500000000000304e-01 -1.963860000000000050e-01 1.996169999999999889e-01 4.757410000000000250e-01 -5.161200000000000232e-01
-2.023270000000000068e-01 -3.423629999999999729e-01 3.777570000000000094e-01 6.103690000000000504e-01 -8.412300000000000333e-02 2.114129999999999898e-01 1.826799999999999952e-02 4.506999999999999722e-03 2.790899999999999978e-02 -1.769920000000000104e-01 1.503150000000000042e-01 1.848700000000000065e-01 -6.200849999999999973e-01 7.200680000000000414e-01 -7.783600000000000241e-02 5.152360000000000273e-01 -7.620519999999999516e-01 -3.521610000000000018e-01 -2.796899999999999942e-01 -4.578000000000000125e-02 2.286399999999999891e-02 -8.310399999999999732e-02 -1.433109999999999939e-01 -9.199100000000000332e-02 1.853539999999999910e-01 -7.737800000000000233e-02 -4.914799999999999724e-02 -6.024299999999999794e-02 -9.770099999999999618e-02 -3.654740000000000211e-01 -6.692199999999999538e-02 -4.212069999999999981e-01 -1.639339999999999964e-01 -3.711999999999999744e-01 4.009469999999999978e-01 4.897100000000000064e-02 1.072010000000000046e-01 3.989190000000000236e-01 9.330800000000000205e-02 1.869900000000000034e-02 4.157799999999999691e-02 -2.255759999999999987e-01 2.265899999999999859e-02 7.563339999999999508e-01 4.564119999999999844e-01 1.768909999999999927e-01 -4.215900000000000203e-01 -3.228469999999999951e-01 5.810110000000000552e-01 -1.332329999999999903e-01 -2.045190000000000063e-01 -1.718290000000000095e-01 2.836799999999999877e-01 4.444799999999999862e-01 -3.369000000000000033e-03 -2.820420000000000149e-01 -3.169770000000000088e-01 -1.999259999999999926e-01 5.443200000000000122e-02 3.024800000000000266e-01
-5.084089999999999998e-01 5.111830000000000540e-01 6.877700000000000480e-02 -2.446570000000000134e-01 2.668900000000000092e-02 -6.076829999999999732e-01 3.889200000000000296e-02 3.964840000000000031e-01 -1.774940000000000129e-01 -7.447600000000000053e-02 -3.849099999999999744e-02 -4.930240000000000178e-01 2.773229999999999862e-01 2.103400000000000061e-02 -3.879400000000000209e-02 7.914000000000000201e-02 4.622839999999999727e-01 -1.931730000000000114e-01 5.028970000000000384e-01 6.282200000000000284e-02 -4.839829999999999965e-01 1.460599999999999919e-02 -1.070200000000000040e-01 -3.542489999999999806e-01 -4.107000000000000407e-03 1.610840000000000050e-01 -2.355499999999999955e-02 -2.263819999999999999e-01 -3.814549999999999885e-01 2.405099999999999946e-02 7.470790000000000486e-01 -1.196809999999999957e-01 -2.114299999999999860e-02 1.562639999999999862e-01 -3.216120000000000090e-01 5.913810000000000455e-01 -1.569500000000000062e-02 -3.756400000000000017e-02 5.387589999999999879e-01 4.084780000000000078e-01 -3.238449999999999940e-01 4.094280000000000141e-01 -4.491249999999999964e-01 -8.348899999999999377e-02 -1.262149999999999939e-01 -3.587609999999999966e-01 -7.925400000000000500e-02 1.812749999999999917e-01 -6.992400000000000004e-02 -2.180330000000000046e-01 3.430460000000000176e-01 -3.493950000000000111e-01 8.019230000000000524e-01 -7.618369999999999864e-01 -1.221919999999999951e-01 -2.471009999999999873e-01 7.672020000000000506e-01 1.984440000000000093e-01 -4.859580000000000011e-01 3.572330000000000227e-01
-1.232919999999999988e-01 -5.304240000000000066e-01 -1.165250000000000036e-01 -7.349999999999999763e-04 2.774780000000000024e-01 -3.157780000000000031e-01 7.642830000000000457e-01 -9.877150000000000096e-01 -1.463300000000000017e-02 5.568710000000000049e-01 -3.960380000000000011e-01 5.292999999999999788e-02 1.412914999999999921e+00 1.635669999999999902e-01 4.385800000000000115e-02 -2.266070000000000029e-01 7.192420000000000480e-01 -2.294059999999999988e-01 -9.362700000000000189e-02 4.827000000000000041e-02 -2.289770000000000139e-01 -1.300211999999999923e+00 3.744919999999999916e-01 5.558929999999999705e-01 -5.464740000000000153e-01 -1.903060000000000029e-01 -2.066449999999999954e-01 -1.453230000000000077e-01 1.458831999999999907e+00 -1.244910000000000044e-01 -3.215250000000000052e-01 -1.351120000000000099e-01 -1.123310000000000003e-01 -1.053479999999999972e-01 9.366299999999999626e-02 -7.287200000000000621e-02 -1.104575000000000085e+00 -3.344480000000000230e-01 1.176999999999999921e-02 -3.044259999999999744e-01 -2.218539999999999957e-01 -1.998709999999999931e-01 1.972623000000000015e+00 -5.899100000000000454e-01 -1.290923000000000043e+00 -4.792629999999999946e-01 -9.665799999999999392e-02 6.214539999999999509e-01 -5.436539999999999706e-01 3.641999999999999838e-03 1.196506000000000070e+00 1.252320000000000100e-01 4.620799999999999907e-02 9.136400000000000077e-02 -5.370599999999999680e-02 -1.029420000000000057e-01 5.239200000000000107e-02 5.168430000000000524e-01 4.000119999999999787e-01 2.862850000000000117e-01
-1.763710000000000000e-01 1.159519999999999995e-01 -6.856809999999999850e-01 3.312400000000000067e-02 -5.682319999999999593e-01 3.527609999999999912e-01 2.052259999999999918e-01 2.938629999999999853e-01 -3.754640000000000200e-01 3.853499999999999981e-02 -3.736539999999999861e-01 -5.858550000000000146e-01 -7.204499999999999793e-02 -4.389900000000000052e-02 -4.760999999999999607e-03 3.176950000000000052e-01 1.357500000000000095e-01 -9.417499999999999483e-02 -8.538500000000000256e-02 -5.607919999999999572e-01 -2.915880000000000138e-01 2.427429999999999866e-01 -7.604570000000000496e-01 -1.160072999999999910e+00 -3.382580000000000031e-01 1.058899999999999980e-01 4.371720000000000050e-01 -2.506550000000000167e-01 -3.135000000000000286e-02 3.638199999999999767e-01 -4.466000000000000351e-03 1.843329999999999969e-01 -4.060190000000000188e-01 5.519340000000000357e-01 3.201129999999999809e-01 1.180797000000000097e+00 -3.001039999999999819e-01 -3.870449999999999724e-01 -9.013699999999999490e-02 7.845180000000000486e-01 -1.585729999999999917e-01 -7.546500000000000430e-02 -4.905199999999999838e-02 5.392109999999999959e-01 4.082549999999999790e-01 -6.639880000000000226e-01 4.057899999999999702e-02 -2.412300000000000000e-01 9.124609999999999665e-01 5.115650000000000475e-01 1.128975000000000062e+00 -9.662870000000000070e-01 8.820999999999999674e-02 -2.990180000000000060e-01 1.013190000000000063e-01 1.554000000000000043e-03 -4.777120000000000255e-01 -2.809420000000000250e-01 5.469829999999999970e-01 9.153989999999999627e-01
-9.036220000000000363e-01 1.642919999999999936e-01 5.110230000000000050e-01 1.346090000000000064e-01 -6.128200000000000314e-01 -1.378939999999999888e-01 1.172296999999999922e+00 -8.160699999999999621e-01 -9.136870000000000269e-01 3.720890000000000031e-01 2.086810000000000054e-01 2.435400000000000065e-02 5.827480000000000437e-01 1.878809999999999925e-01 4.698490000000000166e-01 4.241700000000000331e-02 -7.795399999999999552e-02 -1.077899999999999969e-01 -5.754719999999999835e-01 -9.914900000000000102e-02 -5.289199999999999458e-01 -8.134810000000000096e-01 4.571379999999999888e-01 -4.401470000000000105e-01 5.838160000000000016e-01 1.100548000000000082e+00 3.699779999999999736e-01 -3.632619999999999738e-01 -2.095599999999999963e-01 9.896380000000000177e-01 3.483919999999999795e-01 8.863500000000000545e-02 -3.694810000000000039e-01 -1.160857000000000028e+00 -6.990599999999999592e-02 4.015839999999999965e-01 5.378460000000000463e-01 -1.749719999999999887e-01 -1.266542000000000057e+00 -1.148700000000000068e-02 4.761909999999999754e-01 -3.426730000000000054e-01 -9.800440000000000262e-01 4.986689999999999734e-01 8.861649999999999805e-01 -3.306640000000000135e-01 -3.041989999999999972e-01 2.356260000000000021e-01 1.316988000000000048e+00 1.737776999999999905e+00 -1.631828000000000056e+00 1.566823999999999995e+00 -7.344779999999999642e-01 9.103550000000000253e-01 -1.494641000000000108e+00 -2.043314000000000075e+00 1.181639000000000106e+00 -2.449399999999999841e-02 2.226110000000000033e-01 -2.412509999999999932e-01
-2.976399999999999879e-02 1.500640000000000029e-01 4.622000000000000240e-03 2.779249999999999776e-01 1.588538000000000006e+00 7.801430000000000309e-01 -1.124241999999999964e+00 -1.058939999999999992e+00 -2.176156999999999897e+00 -7.131229999999999514e-01 4.808479999999999976e-01 1.072119000000000044e+00 1.206480000000000052e-01 -7.819199999999999762e-02 1.704920000000000047e-01 9.216130000000000155e-01 1.018443999999999905e+00 -5.807529999999999637e-01 7.474899999999999600e-02 -4.808149999999999924e-01 2.334839999999999971e-01 -4.248000000000000040e-03 4.441620000000000013e-01 6.933780000000000499e-01 -3.552089999999999970e-01 -1.877479999999999982e-01 -2.341010000000000035e-01 -4.796599999999999753e-01 -6.439559999999999729e-01 -1.540693000000000090e+00 6.009860000000000202e-01 2.641569999999999752e-01 4.208740000000000259e-01 9.373839999999999950e-01 -2.422819999999999974e-01 -8.842539999999999845e-01 6.952920000000000211e-01 9.197600000000000220e-02 2.373864999999999892e+00 -4.296590000000000131e-01 -4.596839999999999815e-01 -1.422059999999999991e-01 3.335899999999999976e-02 -5.710650000000000448e-01 2.922080000000000233e-01 -7.390599999999999947e-02 2.675219999999999820e-01 5.973799999999999943e-02 -9.510579999999999590e-01 3.151889999999999969e-01 5.776940000000000408e-01 -9.812400000000000011e-01 -2.483249999999999902e-01 -1.270010000000000028e-01 7.748129999999999740e-01 9.732499999999999485e-02 -9.693869999999999987e-01 7.053390000000000493e-01 -7.472189999999999666e-01 -2.406799999999999912e-02
1.398214000000000068e+00 2.314769999999999883e-01 -1.951989999999999892e+00 8.172570000000000112e-01 4.431649999999999756e-01 -3.115269999999999984e-01 -7.946509999999999962e-01 2.284309999999999952e-01 -1.606420000000000070e-01 -8.096039999999999903e-01 6.208199999999999830e-02 5.830359999999999987e-01 -5.245889999999999720e-01 -4.443860000000000032e-01 -3.017830000000000235e-01 -3.996399999999999952e-01 2.868689999999999851e-01 2.787192999999999810e+00 -7.746200000000000307e-02 4.970579999999999998e-01 1.908299999999999927e-02 -4.250260000000000149e-01 2.113039999999999918e-01 -1.132006999999999985e+00 -7.005409999999999693e-01 1.656650000000000067e-01 1.836770000000000069e-01 8.782579999999999831e-01 -6.880039999999999489e-01 -7.466220000000000079e-01 -1.020749999999999991e-01 4.019260000000000055e-01 -1.327280000000000126e-01 -9.290680000000000049e-01 -1.086070000000000091e+00 7.799599999999999866e-01 -1.059247000000000050e+00 -1.584959999999999980e-01 1.354259999999999908e-01 1.021228999999999942e+00 -4.855240000000000111e-01 2.212449999999999972e-01 5.139209999999999612e-01 -3.841330000000000022e-01 1.686340000000000061e-01 7.238310000000000022e-01 4.433650000000000091e-01 -9.589659999999999851e-01 8.345209999999999573e-01 -2.090569999999999928e-01 1.098599999999999993e-01 7.984839999999999716e-01 3.117610000000000103e-01 8.194270000000000165e-01 -2.208199999999999885e-01 3.366000000000000103e-01 5.521080000000000432e-01 -9.429929999999999701e-01 -1.640320000000000111e-01 -6.633839999999999737e-01