8.800212523000000786e+00 0.000000000000000000e+00 0.000000000000000000e+00 -4.340034106000000058e+00 7.605243512999999567e+00 0.000000000000000000e+00 5.887380070000000076e-01 -1.021049839999999959e-01 1.132053170800000075e+01
8.281407465999999218e+00 0.000000000000000000e+00 0.000000000000000000e+00 -3.871217419000000159e+00 7.041905505999999981e+00 0.000000000000000000e+00 4.282628800000000124e-01 -5.265052600000000305e-02 1.055258614199999911e+01
8.212344056999999253e+00 0.000000000000000000e+00 0.000000000000000000e+00 -4.101019688000000052e+00 7.094918470999999727e+00 0.000000000000000000e+00 6.930407600000000334e-01 2.211026480000000127e-01 1.046630693000000001e+01
8.329950375999999324e+00 0.000000000000000000e+00 0.000000000000000000e+00 -4.108113143999999828e+00 7.198837629999999876e+00 0.000000000000000000e+00 5.572772670000000206e-01 -9.664873999999999687e-02 1.071558977800000001e+01
8.149263180000000162e+00 0.000000000000000000e+00 0.000000000000000000e+00 -3.956499432000000205e+00 7.244704195999999818e+00 0.000000000000000000e+00 5.218508859999999583e-01 -1.879019909999999904e-01 1.097700288899999954e+01
7.857987933999999619e+00 0.000000000000000000e+00 0.000000000000000000e+00 -3.855515757000000043e+00 7.013740070999999965e+00 0.000000000000000000e+00 4.401832210000000134e-01 -5.201646199999999942e-02 1.028161780399999969e+01
8.990876931000000738e+00 0.000000000000000000e+00 0.000000000000000000e+00 -4.434064794000000198e+00 7.770017858000000111e+00 0.000000000000000000e+00 6.014935380000000498e-01 -1.043171789999999960e-01 1.156580106600000057e+01
8.306320560999999714e+00 0.000000000000000000e+00 0.000000000000000000e+00 -4.147948979999999786e+00 7.176107913000000060e+00 0.000000000000000000e+00 7.009714489999999687e-01 2.236327969999999943e-01 1.058607625800000029e+01
8.241970566000000886e+00 0.000000000000000000e+00 0.000000000000000000e+00 -4.064723809000000188e+00 7.122804480000000105e+00 0.000000000000000000e+00 5.513913799999999865e-01 -9.562794900000000375e-02 1.060241316800000000e+01
8.044196658000000610e+00 0.000000000000000000e+00 0.000000000000000000e+00 -3.908395726000000181e+00 6.971637906999999856e+00 0.000000000000000000e+00 4.811396210000000173e-01 4.142252800000000013e-02 1.030946229099999911e+01
8.186642250000000232e+00 0.000000000000000000e+00 0.000000000000000000e+00 -3.977605091000000037e+00 7.095090768000000381e+00 0.000000000000000000e+00 4.896595799999999832e-01 4.215603300000000248e-02 1.049202091299999928e+01
8.532857998000000777e+00 0.000000000000000000e+00 0.000000000000000000e+00 -4.208181864000000161e+00 7.374192698999999962e+00 0.000000000000000000e+00 5.708518740000000369e-01 -9.900298800000000010e-02 1.097660872099999985e+01
8.445488604999999538e+00 0.000000000000000000e+00 0.000000000000000000e+00 -4.103369543000000341e+00 7.319424301999999827e+00 0.000000000000000000e+00 5.051417019999999702e-01 4.348892800000000308e-02 1.082375904100000064e+01
8.543365288000000390e+00 0.000000000000000000e+00 0.000000000000000000e+00 -3.993671927999999927e+00 7.264655351000000039e+00 0.000000000000000000e+00 4.418097089999999949e-01 -5.431596999999999814e-02 1.088638598100000010e+01
8.394151134999999542e+00 0.000000000000000000e+00 0.000000000000000000e+00 -4.139775275999999948e+00 7.254320654999999896e+00 0.000000000000000000e+00 5.615723249999999833e-01 -9.739363299999999335e-02 1.079817718500000012e+01
8.085922007000000633e+00 0.000000000000000000e+00 0.000000000000000000e+00 -3.987764750000000191e+00 6.987945544999999647e+00 0.000000000000000000e+00 5.409516640000000542e-01 -9.381738600000000261e-02 1.040167339499999954e+01
8.909575434000000627e+00 0.000000000000000000e+00 0.000000000000000000e+00 -4.393969026999999805e+00 7.699756181999999782e+00 0.000000000000000000e+00 5.960544330000000501e-01 -1.033738740000000045e-01 1.146121538999999956e+01
8.208756419000000193e+00 0.000000000000000000e+00 0.000000000000000000e+00 -3.988349597000000024e+00 7.114256382999999850e+00 0.000000000000000000e+00 4.909822730000000246e-01 4.226990700000000240e-02 1.052036248699999987e+01
8.615093687999999972e+00 0.000000000000000000e+00 0.000000000000000000e+00 -4.248738351000000080e+00 7.445261716000000085e+00 0.000000000000000000e+00 5.763534769999999474e-01 -9.995713200000000409e-02 1.108239613699999992e+01
8.601471697999999222e+00 0.000000000000000000e+00 0.000000000000000000e+00 -4.242020341999999999e+00 7.433489437000000422e+00 0.000000000000000000e+00 5.754421600000000359e-01 -9.979908199999999729e-02 1.106487290399999956e+01
8.435958724000000686e+00 0.000000000000000000e+00 0.000000000000000000e+00 -3.943463776000000198e+00 7.173324635000000171e+00 0.000000000000000000e+00 4.362553100000000073e-01 -5.363311300000000309e-02 1.074952313200000020e+01
8.401048771999999332e+00 0.000000000000000000e+00 0.000000000000000000e+00 -4.081777771999999693e+00 7.280909775999999667e+00 0.000000000000000000e+00 5.024836660000000510e-01 4.326009100000000052e-02 1.076680484100000079e+01
8.587862200000000001e+00 0.000000000000000000e+00 0.000000000000000000e+00 -4.235308493999999868e+00 7.421727953999999627e+00 0.000000000000000000e+00 5.745316790000000173e-01 -9.964117699999999744e-02 1.104736574100000013e+01
8.175248767999999444e+00 0.000000000000000000e+00 0.000000000000000000e+00 -4.082495317000000234e+00 7.062870611000000132e+00 0.000000000000000000e+00 6.899102839999999848e-01 2.201039240000000063e-01 1.041903045499999969e+01
8.325218814999999495e+00 0.000000000000000000e+00 0.000000000000000000e+00 -4.044934630000000197e+00 7.215190470999999661e+00 0.000000000000000000e+00 4.979481230000000203e-01 4.286961499999999980e-02 1.066962097999999948e+01
7.923283138999999586e+00 0.000000000000000000e+00 0.000000000000000000e+00 -3.887552799999999920e+00 7.072020078999999626e+00 0.000000000000000000e+00 4.438408819999999921e-01 -5.244868800000000025e-02 1.036705193200000075e+01
8.195307945999999788e+00 0.000000000000000000e+00 0.000000000000000000e+00 -4.021021562999999688e+00 7.314819038000000440e+00 0.000000000000000000e+00 4.590789750000000002e-01 -5.424937400000000298e-02 1.072297702500000049e+01
8.534611462000000870e+00 0.000000000000000000e+00 0.000000000000000000e+00 -4.146671243000000118e+00 7.396664119000000426e+00 0.000000000000000000e+00 5.104723199999999794e-01 4.394785500000000095e-02 1.093797911300000081e+01
8.504372449999999972e+00 0.000000000000000000e+00 0.000000000000000000e+00 -4.194133539000000077e+00 7.349575166000000159e+00 0.000000000000000000e+00 5.689461789999999963e-01 -9.867248200000000580e-02 1.093996511199999944e+01
8.326482603000000537e+00 0.000000000000000000e+00 0.000000000000000000e+00 -3.892288192000000091e+00 7.080234118999999993e+00 0.000000000000000000e+00 4.305938859999999813e-01 -5.293709900000000135e-02 1.061002314999999996e+01
8.542797251999999730e+00 0.000000000000000000e+00 0.000000000000000000e+00 -4.150648434999999914e+00 7.403758471999999813e+00 0.000000000000000000e+00 5.109619279999999542e-01 4.399000599999999817e-02 1.094847004200000029e+01
8.547513681999999946e+00 0.000000000000000000e+00 0.000000000000000000e+00 -3.995611130999999983e+00 7.268182842999999949e+00 0.000000000000000000e+00 4.420242380000000137e-01 -5.434234400000000076e-02 1.089167207400000059e+01
8.739365126999999234e+00 0.000000000000000000e+00 0.000000000000000000e+00 -4.310025765999999869e+00 7.552658502999999968e+00 0.000000000000000000e+00 5.846672899999999506e-01 -1.013989990000000035e-01 1.124225804499999981e+01
7.925785954000000189e+00 0.000000000000000000e+00 0.000000000000000000e+00 -3.888780804000000035e+00 7.074253996000000377e+00 0.000000000000000000e+00 4.439810829999999986e-01 -5.246525600000000178e-02 1.037032668600000029e+01
8.662135295000000568e+00 0.000000000000000000e+00 0.000000000000000000e+00 -4.049192021999999724e+00 7.365648711000000404e+00 0.000000000000000000e+00 4.479517550000000070e-01 -5.507107099999999922e-02 1.103772870100000070e+01
8.140091375000000795e+00 0.000000000000000000e+00 0.000000000000000000e+00 -4.014479662000000282e+00 7.034759326999999729e+00 0.000000000000000000e+00 5.445756179999999835e-01 -9.444589000000000456e-02 1.047135648999999979e+01
8.460707001999999477e+00 0.000000000000000000e+00 0.000000000000000000e+00 -4.110763634000000444e+00 7.332613580000000297e+00 0.000000000000000000e+00 5.060519449999999475e-01 4.356729399999999947e-02 1.084326297500000003e+01
8.792864159000000512e+00 0.000000000000000000e+00 0.000000000000000000e+00 -4.336410085999999886e+00 7.598892973999999967e+00 0.000000000000000000e+00 5.882463980000000037e-01 -1.020197240000000061e-01 1.131107882400000086e+01
9.187458423000000707e+00 0.000000000000000000e+00 0.000000000000000000e+00 -4.531013631999999625e+00 7.939905814000000284e+00 0.000000000000000000e+00 6.146449250000000086e-01 -1.065980279999999975e-01 1.181868211899999999e+01
9.042658931000000067e+00 0.000000000000000000e+00 0.000000000000000000e+00 -4.459602319000000037e+00 7.814768449999999866e+00 0.000000000000000000e+00 6.049577760000000026e-01 -1.049179830000000063e-01 1.163241306799999997e+01
8.336079037999999386e+00 0.000000000000000000e+00 0.000000000000000000e+00 -4.047199267999999961e+00 7.410783705000000054e+00 0.000000000000000000e+00 5.338139330000000182e-01 -1.922095050000000027e-01 1.122864259700000034e+01
8.623026309000000111e+00 0.000000000000000000e+00 0.000000000000000000e+00 -4.252650510999999689e+00 7.452117176999999870e+00 0.000000000000000000e+00 5.768841729999999446e-01 -1.000491710000000062e-01 1.109260060499999945e+01
7.941149608999999998e+00 0.000000000000000000e+00 0.000000000000000000e+00 -3.855459472000000165e+00 7.059690995999999608e+00 0.000000000000000000e+00 5.085240060000000284e-01 -1.831034029999999979e-01 1.069667530399999933e+01
8.679771664000000442e+00 0.000000000000000000e+00 0.000000000000000000e+00 -4.217199543000000439e+00 7.522469641999999901e+00 0.000000000000000000e+00 5.191546439999999984e-01 4.469533800000000112e-02 1.112401678700000041e+01
8.172731178999999457e+00 0.000000000000000000e+00 0.000000000000000000e+00 -4.030576757999999593e+00 7.062967015999999987e+00 0.000000000000000000e+00 5.467592350000000101e-01 -9.482459499999999764e-02 1.051334410499999983e+01
8.199146040000000468e+00 0.000000000000000000e+00 0.000000000000000000e+00 -3.983680248000000201e+00 7.105927387000000373e+00 0.000000000000000000e+00 4.904074560000000194e-01 4.222042000000000156e-02 1.050804580099999974e+01
7.862615735000000328e+00 0.000000000000000000e+00 0.000000000000000000e+00 -3.857786384000000179e+00 7.017870669999999755e+00 0.000000000000000000e+00 4.404424579999999811e-01 -5.204709600000000103e-02 1.028767295099999934e+01
8.438565707000000415e+00 0.000000000000000000e+00 0.000000000000000000e+00 -3.944682434000000182e+00 7.175541424000000390e+00 0.000000000000000000e+00 4.363901270000000165e-01 -5.364968800000000093e-02 1.075284508100000025e+01
8.242536308000000034e+00 0.000000000000000000e+00 0.000000000000000000e+00 -4.116096870999999879e+00 7.121002565000000395e+00 0.000000000000000000e+00 6.955886879999999550e-01 2.219155210000000045e-01 1.050478575700000050e+01
8.536279290999999603e+00 0.000000000000000000e+00 0.000000000000000000e+00 -4.209869155999999890e+00 7.377149419000000208e+00 0.000000000000000000e+00 5.710807599999999651e-01 -9.904268300000000635e-02 1.098100984799999935e+01
8.432101025999999777e+00 0.000000000000000000e+00 0.000000000000000000e+00 -3.941660461000000115e+00 7.170044329999999633e+00 0.000000000000000000e+00 4.360558139999999860e-01 -5.360858699999999921e-02 1.074460745999999922e+01
8.507255921000000498e+00 0.000000000000000000e+00 0.000000000000000000e+00 -3.976792284000000066e+00 7.233950576999999882e+00 0.000000000000000000e+00 4.399423570000000061e-01 -5.408639800000000081e-02 1.084037360900000024e+01
8.502012957999999898e+00 0.000000000000000000e+00 0.000000000000000000e+00 -4.130832762999999908e+00 7.368412079999999698e+00 0.000000000000000000e+00 5.085225370000000522e-01 4.377999300000000316e-02 1.089620079100000005e+01
8.694621016999999341e+00 0.000000000000000000e+00 0.000000000000000000e+00 -4.064377761000000255e+00 7.393272202000000348e+00 0.000000000000000000e+00 4.496317149999999874e-01 -5.527760500000000049e-02 1.107912364300000085e+01
8.495297159999999792e+00 0.000000000000000000e+00 0.000000000000000000e+00 -4.189657842999999993e+00 7.341732196999999793e+00 0.000000000000000000e+00 5.683390379999999631e-01 -9.856718600000000108e-02 1.092829072199999985e+01
8.440419100999999813e+00 0.000000000000000000e+00 0.000000000000000000e+00 -4.162593423999999764e+00 7.294305955999999647e+00 0.000000000000000000e+00 5.646676720000000094e-01 -9.793045999999999696e-02 1.085769597300000022e+01
8.826711752999999661e+00 0.000000000000000000e+00 0.000000000000000000e+00 -4.353102832000000255e+00 7.628144448999999661e+00 0.000000000000000000e+00 5.905108169999999657e-01 -1.024124430000000058e-01 1.135462013200000086e+01
8.199563786000000576e+00 0.000000000000000000e+00 0.000000000000000000e+00 -4.094637570999999809e+00 7.083877166999999808e+00 0.000000000000000000e+00 6.919622309999999832e-01 2.207585619999999915e-01 1.045001898099999948e+01
8.650345550999999134e+00 0.000000000000000000e+00 0.000000000000000000e+00 -4.043680800999999825e+00 7.355623571999999832e+00 0.000000000000000000e+00 4.473420630000000120e-01 -5.499611599999999767e-02 1.102270561599999965e+01
8.527525281999999152e+00 0.000000000000000000e+00 0.000000000000000000e+00 -4.143228314999999995e+00 7.390522762999999884e+00 0.000000000000000000e+00 5.100484809999999980e-01 4.391136500000000081e-02 1.092889744800000074e+01
8.545948540999999565e+00 0.000000000000000000e+00 0.000000000000000000e+00 -3.994879491999999921e+00 7.266851961000000415e+00 0.000000000000000000e+00 4.419432990000000117e-01 -5.433239299999999966e-02 1.088967769199999935e+01
8.369761547999999607e+00 0.000000000000000000e+00 0.000000000000000000e+00 -4.066576397000000398e+00 7.253794176999999621e+00 0.000000000000000000e+00 5.006123139999999472e-01 4.309898200000000096e-02 1.072670705700000049e+01
8.453548359999999207e+00 0.000000000000000000e+00 0.000000000000000000e+00 -4.107285498000000423e+00 7.326409423000000309e+00 0.000000000000000000e+00 5.056237719999999713e-01 4.353043100000000137e-02 1.083408844200000054e+01
8.404079595000000680e+00 0.000000000000000000e+00 0.000000000000000000e+00 -3.928561595000000128e+00 7.146216947000000097e+00 0.000000000000000000e+00 4.346067200000000019e-01 -5.343043599999999782e-02 1.070890114300000029e+01
8.317408568999999474e+00 0.000000000000000000e+00 0.000000000000000000e+00 -4.041139903000000366e+00 7.208421590999999573e+00 0.000000000000000000e+00 4.974809769999999909e-01 4.282939699999999822e-02 1.065961135000000048e+01
8.458554329000000038e+00 0.000000000000000000e+00 0.000000000000000000e+00 -3.954026293000000081e+00 7.192538292000000055e+00 0.000000000000000000e+00 4.374238140000000219e-01 -5.377676900000000204e-02 1.077831559000000006e+01
8.096727854999999252e+00 0.000000000000000000e+00 0.000000000000000000e+00 -3.930993325000000205e+00 7.198000233000000136e+00 0.000000000000000000e+00 5.184867039999999649e-01 -1.866906550000000109e-01 1.090623815900000082e+01
8.864787717000000455e+00 0.000000000000000000e+00 0.000000000000000000e+00 -4.371880898999999765e+00 7.661050129000000375e+00 0.000000000000000000e+00 5.930581150000000523e-01 -1.028542219999999952e-01 1.140360078500000007e+01
8.934786856000000554e+00 0.000000000000000000e+00 0.000000000000000000e+00 -4.406402639999999593e+00 7.721544179000000341e+00 0.000000000000000000e+00 5.977410880000000315e-01 -1.036663909999999966e-01 1.149364718700000054e+01
8.532613671000000011e+00 0.000000000000000000e+00 0.000000000000000000e+00 -4.145700586000000243e+00 7.394932701000000108e+00 0.000000000000000000e+00 5.103528280000000361e-01 4.393756699999999682e-02 1.093541873999999936e+01
8.461827874000000804e+00 0.000000000000000000e+00 0.000000000000000000e+00 -3.955556539999999899e+00 7.195321876000000394e+00 0.000000000000000000e+00 4.375931009999999843e-01 -5.379758099999999710e-02 1.078248690600000081e+01
8.511498901999999589e+00 0.000000000000000000e+00 0.000000000000000000e+00 -3.978775703000000163e+00 7.237558499000000367e+00 0.000000000000000000e+00 4.401617780000000035e-01 -5.411337399999999881e-02 1.084578022900000072e+01
8.297838219000000848e+00 0.000000000000000000e+00 0.000000000000000000e+00 -3.878898120000000116e+00 7.055877021999999776e+00 0.000000000000000000e+00 4.291125760000000233e-01 -5.275498800000000266e-02 1.057352303499999913e+01
8.871826604000000671e+00 0.000000000000000000e+00 0.000000000000000000e+00 -4.375352293999999809e+00 7.667133214999999780e+00 0.000000000000000000e+00 5.935290199999999627e-01 -1.029358910000000016e-01 1.141265555999999926e+01
8.255483355000000856e+00 0.000000000000000000e+00 0.000000000000000000e+00 -4.050546580999999868e+00 7.368529310999999637e+00 0.000000000000000000e+00 4.624498389999999737e-01 -5.464770900000000264e-02 1.080171226500000081e+01
8.460530586000000852e+00 0.000000000000000000e+00 0.000000000000000000e+00 -4.110677918999999569e+00 7.332460687000000199e+00 0.000000000000000000e+00 5.060413929999999505e-01 4.356638499999999914e-02 1.084303688099999974e+01
8.486964564000000877e+00 0.000000000000000000e+00 0.000000000000000000e+00 -4.185548425000000350e+00 7.334531072999999957e+00 0.000000000000000000e+00 5.677815840000000058e-01 -9.847050599999999931e-02 1.091757172900000050e+01
8.211633117999999953e+00 0.000000000000000000e+00 0.000000000000000000e+00 -4.029031495999999990e+00 7.329390262999999628e+00 0.000000000000000000e+00 4.599934669999999892e-01 -5.435743999999999992e-02 1.074433735000000034e+01
8.477015230999999318e+00 0.000000000000000000e+00 0.000000000000000000e+00 -4.118687236000000418e+00 7.346747380000000049e+00 0.000000000000000000e+00 5.070273730000000034e-01 4.365127099999999843e-02 1.086416364199999940e+01
8.209127406000000349e+00 0.000000000000000000e+00 0.000000000000000000e+00 -3.988529847000000128e+00 7.114577906000000063e+00 0.000000000000000000e+00 4.910044619999999749e-01 4.227181800000000267e-02 1.052083794500000025e+01
8.649113443999999262e+00 0.000000000000000000e+00 0.000000000000000000e+00 -4.265516002000000029e+00 7.474661975000000069e+00 0.000000000000000000e+00 5.786294140000000086e-01 -1.003518479999999935e-01 1.112615891199999929e+01
8.215663262999999716e+00 0.000000000000000000e+00 0.000000000000000000e+00 -4.051749735999999658e+00 7.100069410999999775e+00 0.000000000000000000e+00 5.496314100000000424e-01 -9.532271700000000125e-02 1.056857163799999988e+01
8.637995173000000193e+00 0.000000000000000000e+00 0.000000000000000000e+00 -4.260032761999999806e+00 7.465053439000000068e+00 0.000000000000000000e+00 5.778855969999999731e-01 -1.002228480000000033e-01 1.111185644600000089e+01
8.545373022999999790e+00 0.000000000000000000e+00 0.000000000000000000e+00 -4.151899912000000192e+00 7.405990807000000231e+00 0.000000000000000000e+00 5.111159899999999645e-01 4.400326999999999711e-02 1.095177115699999959e+01
8.505581484000000358e+00 0.000000000000000000e+00 0.000000000000000000e+00 -3.976009552999999919e+00 7.232526756999999584e+00 0.000000000000000000e+00 4.398557659999999814e-01 -5.407575199999999777e-02 1.083823995700000076e+01
8.445619594000000063e+00 0.000000000000000000e+00 0.000000000000000000e+00 -4.103433186000000177e+00 7.319537825000000275e+00 0.000000000000000000e+00 5.051495369999999818e-01 4.348960300000000168e-02 1.082392691599999957e+01
8.267690902000000008e+00 0.000000000000000000e+00 0.000000000000000000e+00 -4.016983814999999680e+00 7.165332940999999956e+00 0.000000000000000000e+00 4.945072629999999747e-01 4.257338299999999937e-02 1.059589306500000028e+01
8.117206262999999922e+00 0.000000000000000000e+00 0.000000000000000000e+00 -4.003193324999999803e+00 7.014981753999999903e+00 0.000000000000000000e+00 5.430445940000000471e-01 -9.418036400000000252e-02 1.044191724300000068e+01
8.764061187999999447e+00 0.000000000000000000e+00 0.000000000000000000e+00 -4.096838185000000188e+00 7.452319065000000187e+00 0.000000000000000000e+00 4.532227280000000191e-01 -5.571908300000000258e-02 1.116760780399999931e+01
8.556814059000000583e+00 0.000000000000000000e+00 0.000000000000000000e+00 -4.219996365000000083e+00 7.394895799000000380e+00 0.000000000000000000e+00 5.724545450000000368e-01 -9.928093899999999861e-02 1.100742563000000018e+01
8.232563183999999978e+00 0.000000000000000000e+00 0.000000000000000000e+00 -3.999916477000000192e+00 7.134888915000000331e+00 0.000000000000000000e+00 4.924062029999999868e-01 4.239249700000000121e-02 1.055087329500000060e+01
8.520239503999999187e+00 0.000000000000000000e+00 0.000000000000000000e+00 -4.139688408999999680e+00 7.384208422000000382e+00 0.000000000000000000e+00 5.096127040000000274e-01 4.387384800000000001e-02 1.091955997800000056e+01
8.366112513999999223e+00 0.000000000000000000e+00 0.000000000000000000e+00 -4.177807443999999926e+00 7.227764179000000233e+00 0.000000000000000000e+00 7.060172999999999588e-01 2.252425889999999931e-01 1.066227873300000084e+01
8.885745974000000658e+00 0.000000000000000000e+00 0.000000000000000000e+00 -4.382216962000000215e+00 7.679162491999999673e+00 0.000000000000000000e+00 5.944602319999999773e-01 -1.030973909999999966e-01 1.143056134100000065e+01
8.463965225000000814e+00 0.000000000000000000e+00 0.000000000000000000e+00 -3.956555664000000139e+00 7.197139323000000033e+00 0.000000000000000000e+00 4.377036320000000091e-01 -5.381116999999999845e-02 1.078521042500000071e+01
8.491382004000000094e+00 0.000000000000000000e+00 0.000000000000000000e+00 -4.125667551000000266e+00 7.359198584999999682e+00 0.000000000000000000e+00 5.078866789999999520e-01 4.372525000000000023e-02 1.088257613300000060e+01
8.097271340000000706e+00 0.000000000000000000e+00 0.000000000000000000e+00 -3.993361944000000108e+00 6.997753766999999847e+00 0.000000000000000000e+00 5.417109390000000024e-01 -9.394906799999999669e-02 1.041627309699999948e+01
8.172024747000000033e+00 0.000000000000000000e+00 0.000000000000000000e+00 -4.009597678999999637e+00 7.294037343000000284e+00 0.000000000000000000e+00 4.577747129999999998e-01 -5.409524899999999803e-02 1.069251261800000030e+01
8.088870222000000609e+00 0.000000000000000000e+00 0.000000000000000000e+00 -3.989218731999999878e+00 6.990493425000000371e+00 0.000000000000000000e+00 5.411489010000000155e-01 -9.385159299999999705e-02 1.040546595800000063e+01
8.159236268000000791e+00 0.000000000000000000e+00 0.000000000000000000e+00 -3.814107407999999921e+00 6.938020020999999815e+00 0.000000000000000000e+00 4.219449459999999874e-01 -5.187380099999999716e-02 1.039690945299999925e+01
