-5.139200000000000434e-01 2.769760000000000222e+00 4.437669999999999781e+00 7.914400000000000324e-01 4.041509999999999714e+00 1.785099999999999909e+00 6.925390000000000157e+00 1.088659999999999961e+00 1.692039999999999988e+00 2.161519999999999886e+00 6.278360000000000163e+00 4.515979999999999883e+00 3.497100000000000097e+00 2.494409999999999794e+00 1.069158999999999970e+01 -2.337599999999999956e-01 5.288120000000000154e+00 7.053009999999999557e+00 6.041450000000000209e+00 3.914109999999999978e+00 7.742499999999999716e+00 3.266779999999999795e+00 5.739440000000000097e+00 9.996280000000000499e+00 5.210720000000000240e+00 4.557039999999999758e+00 1.120649000000000051e+01 7.720769999999999911e+00 7.550499999999999989e-01 1.033155999999999963e+01 1.105159999999999920e+00 3.820460000000000189e+00 1.023747000000000007e+01 1.884130000000000082e+00 1.442849999999999966e+00 1.587579999999999991e+00 4.221729999999999983e+00 2.130869999999999820e+00 8.077730000000000743e+00 1.755249999999999977e+00 6.680200000000000138e+00 7.018959999999999866e+00 -2.713099999999999956e-01 2.715759999999999952e+00 7.021740000000000315e+00 -2.798939999999999984e+00 6.314969999999999750e+00 6.900050000000000239e+00 -1.832910000000000039e+00 3.745080000000000187e+00 2.462689999999999824e+00 8.408699999999999619e+00 1.996999999999999886e-01 3.876180000000000181e+00 2.335609999999999964e+00 3.675159999999999982e+00 4.076900000000000190e+00 5.733399999999999608e-01 7.080820000000000114e+00 2.607810000000000183e+00
4.268819999999999837e+00 1.296270000000000033e+00 1.778610000000000024e+00 1.619089999999999918e+00 3.604969999999999786e+00 7.938600000000000101e-01 -1.998900000000000121e-01 2.420249999999999790e+00 3.884830000000000005e+00 5.191840000000000011e+00 5.539080000000000226e+00 2.985320000000000196e+00 7.808489999999999931e+00 -1.799999999999999864e-02 1.027919999999999945e+01 4.275500000000000078e+00 6.221280000000000143e+00 6.996959999999999624e+00 3.054819999999999869e+00 2.836489999999999956e+00 5.465180000000000149e+00 1.575199999999999934e-01 6.064729999999999954e+00 7.400579999999999714e+00 -2.513619999999999965e+00 5.834900000000000198e+00 3.559499999999999886e-01 -7.987999999999999545e-01 2.310119999999999951e+00 1.062470000000000026e+00 9.427299999999999569e-01 6.050419999999999909e+00 4.617999999999999883e-02 4.146200000000000330e+00 2.685979999999999812e+00 1.025619999999999976e+01 7.816800000000000415e-01 1.086649999999999894e+00 8.141460000000000363e+00 -1.794659999999999922e+00 4.627530000000000143e+00 6.867309999999999803e+00 5.343189999999999884e+00 1.101429999999999909e+00 6.417399999999999771e+00 2.723180000000000156e+00 4.205429999999999779e+00 7.365829999999999878e+00 1.430199999999999916e+00 4.166809999999999903e+00 3.750690000000000079e+00 3.445770000000000000e+00 3.539200000000000124e-01 4.044109999999999872e+00 5.158830000000000027e+00 3.103839999999999932e+00 3.934619999999999784e+00 3.534330000000000194e+00 6.954039999999999999e+00 4.319549999999999557e+00
1.536869999999999958e+00 9.832300000000000484e-01 2.149840000000000195e+00 -6.488000000000000433e-01 4.377909999999999968e+00 2.514660000000000117e+00 6.028559999999999697e+00 3.243300000000000072e-01 1.987919999999999909e+00 3.814099999999999824e+00 3.315290000000000070e+00 2.267079999999999984e+00 7.676300000000000345e-01 3.067070000000000185e+00 8.363860000000000738e+00 -1.148430000000000062e+00 6.778030000000000221e+00 8.154479999999999507e+00 5.050329999999999764e+00 3.306690000000000129e+00 8.738129999999999953e+00 7.453680000000000305e+00 2.098099999999999965e-01 8.394180000000000419e+00 -2.680779999999999941e+00 7.105139999999999567e+00 1.036884000000000050e+01 -6.082499999999999574e-01 3.798470000000000013e+00 1.032573999999999970e+01 1.433189999999999964e+00 7.302640000000000242e+00 1.015084000000000053e+01 3.102090000000000014e+00 4.002530000000000143e+00 1.029843999999999937e+01 2.962140000000000217e+00 2.108509999999999884e+00 7.002320000000000100e+00 9.153700000000000170e-01 5.539049999999999585e+00 6.993479999999999919e+00 6.738640000000000185e+00 2.019579999999999931e+00 6.861519999999999619e+00 4.855220000000000091e+00 5.900140000000000384e+00 6.801899999999999835e+00 -5.721100000000000074e-01 1.822529999999999983e+00 3.522069999999999812e+00 5.195400000000000240e+00 5.420250000000000234e+00 3.266849999999999810e+00 3.885219999999999896e+00 1.371029999999999971e+00 3.470870000000000122e+00 1.497800000000000020e+00 5.291520000000000223e+00 3.624049999999999994e+00
9.663000000000000478e-01 2.190220000000000056e+00 4.662670000000000314e+00 2.623300000000000076e-01 3.835980000000000167e+00 8.499999999999999778e-01 7.136510000000000353e+00 1.540399999999999991e+00 2.048470000000000013e+00 3.435859999999999914e+00 5.973989999999999689e+00 4.537239999999999718e+00 3.227500000000000036e+00 2.726739999999999942e+00 9.365669999999999717e+00 9.131999999999999840e-02 4.421429999999999971e+00 7.042910000000000004e+00 5.079089999999999883e+00 2.153020000000000156e+00 5.538450000000000095e+00 1.910439999999999916e+00 6.646399999999999864e+00 9.822219999999999729e+00 3.016610000000000014e+00 4.872959999999999958e+00 3.266600000000000059e-01 5.066550000000000331e+00 1.761260000000000048e+00 2.442100000000000104e-01 -4.245999999999999774e-01 5.234469999999999956e+00 9.883119999999999905e+00 8.571999999999999620e-01 1.431929999999999925e+00 1.027012000000000036e+01 3.515359999999999818e+00 1.072160000000000002e+00 7.307439999999999714e+00 2.429269999999999818e+00 5.759400000000000297e+00 7.226099999999999746e+00 -5.855000000000000204e-01 2.019070000000000142e+00 6.795460000000000278e+00 5.540949999999999598e+00 4.975159999999999805e+00 6.923700000000000188e+00 -7.315300000000000136e-01 3.873120000000000118e+00 3.289149999999999796e+00 1.106090000000000018e+00 1.482700000000000129e-01 3.216250000000000053e+00 3.075470000000000148e+00 3.040150000000000130e+00 3.886239999999999917e+00 5.527650000000000396e+00 1.588900000000000035e-01 3.452650000000000219e+00
2.080229999999999801e+00 9.852300000000000502e-01 2.373679999999999790e+00 8.898999999999999966e-02 4.501999999999999780e+00 1.952499999999999902e+00 6.592439999999999856e+00 8.437200000000000255e-01 2.185740000000000016e+00 3.791910000000000114e+00 4.443299999999999805e+00 2.188340000000000174e+00 3.884299999999999975e-01 2.338849999999999874e+00 8.812989999999999213e+00 -1.401450000000000085e+00 6.208140000000000214e+00 8.959640000000000271e+00 5.253860000000000419e+00 2.442190000000000083e+00 8.390829999999999345e+00 2.509469999999999867e+00 5.583300000000000374e+00 9.173120000000000829e+00 4.110420000000000407e+00 6.771429999999999616e+00 1.077318999999999960e+01 -1.217559999999999976e+00 3.366929999999999978e+00 1.096479000000000070e+01 -3.420999999999999736e-02 6.915540000000000020e+00 1.097308999999999912e+01 2.209760000000000169e+00 3.879259999999999931e+00 2.079999999999999905e-02 2.613939999999999930e+00 2.074829999999999952e+00 7.888690000000000424e+00 4.838100000000000178e-01 5.349450000000000038e+00 7.271620000000000417e+00 7.098230000000000040e+00 7.594800000000000439e-01 7.208219999999999850e+00 4.757789999999999964e+00 5.622250000000000192e+00 7.177170000000000272e+00 1.088000000000000078e-02 2.411350000000000104e+00 3.565220000000000056e+00 -2.111779999999999990e+00 5.872539999999999871e+00 3.555520000000000014e+00 3.947670000000000012e+00 2.252310000000000034e+00 3.614720000000000155e+00 2.274309999999999832e+00 5.913429999999999964e+00 3.600490000000000190e+00
-2.419070000000000054e+00 5.715849999999999653e+00 2.047509999999999941e+00 -3.374400000000000177e-01 2.635959999999999859e+00 1.775160000000000071e+00 2.098230000000000040e+00 5.807109999999999772e+00 2.408339999999999925e+00 3.674209999999999976e+00 1.587460000000000093e+00 2.041180000000000216e+00 7.741799999999999793e-01 6.205700000000000216e+00 8.320840000000000458e+00 2.263030000000000097e+00 2.418960000000000221e+00 8.036780000000000257e+00 4.765930000000000000e+00 5.962250000000000050e+00 7.942969999999999864e+00 6.385119999999999685e+00 2.973370000000000068e+00 8.634320000000000661e+00 4.306040000000000312e+00 4.434269999999999712e+00 1.009779999999999944e+01 5.837900000000000311e+00 5.380700000000000482e-01 2.116200000000000025e-01 1.296620000000000106e+00 3.777989999999999959e+00 1.006649999999999956e+01 2.483509999999999884e+00 1.986900000000000055e-01 1.002870000000000061e+01 2.540999999999999925e+00 4.871579999999999799e+00 6.693380000000000329e+00 4.658039999999999736e+00 1.592400000000000038e+00 7.388700000000000045e+00 -8.061500000000000332e-01 4.941970000000000418e+00 6.818109999999999893e+00 1.212000000000000056e-02 1.421229999999999993e+00 6.929229999999999556e+00 7.881669999999999732e+00 1.212700000000000028e-01 3.360189999999999788e+00 5.607129999999999725e+00 3.284130000000000216e+00 3.435189999999999966e+00 -1.789999999999999925e-02 6.242300000000000182e+00 3.380630000000000024e+00 1.927559999999999940e+00 2.850769999999999804e+00 3.431719999999999882e+00
-6.372499999999999831e-01 3.007169999999999899e+00 4.622020000000000017e+00 8.058699999999999752e-01 4.117099999999999760e+00 2.050170000000000048e+00 7.645069999999999588e+00 8.235000000000000653e-02 1.699589999999999934e+00 2.380220000000000002e+00 6.341280000000000250e+00 4.721949999999999648e+00 3.689849999999999852e+00 2.723749999999999893e+00 1.049442999999999948e+01 -3.261600000000000055e-01 5.953140000000000320e+00 6.997230000000000061e+00 5.694139999999999979e+00 3.873940000000000161e+00 8.085919999999999774e+00 2.907119999999999926e+00 5.974680000000000213e+00 1.019331999999999994e+01 5.271080000000000432e+00 4.673499999999999766e+00 1.087603000000000009e+01 7.857400000000000162e+00 5.366999999999999549e-01 1.063973000000000013e+01 1.128470000000000084e+00 4.483660000000000423e+00 1.076272999999999946e+01 2.476449999999999818e+00 2.030440000000000023e+00 1.224490000000000078e+00 4.288299999999999557e+00 1.621639999999999970e+00 8.418929999999999580e+00 1.926889999999999992e+00 6.958070000000000199e+00 7.313010000000000232e+00 -8.895800000000000374e-01 3.072659999999999947e+00 7.285540000000000127e+00 -2.734319999999999862e+00 6.270870000000000388e+00 6.921000000000000263e+00 -1.669219999999999926e+00 3.607959999999999834e+00 2.517490000000000006e+00 8.944169999999999732e+00 1.131599999999999967e-01 3.831970000000000098e+00 1.847620000000000040e+00 3.664079999999999782e+00 4.456400000000000361e+00 8.453699999999999548e-01 7.347929999999999851e+00 2.919090000000000185e+00
2.364520000000000177e+00 1.767449999999999966e+00 2.301019999999999843e+00 -1.693099999999999883e-01 5.374679999999999680e+00 2.734370000000000189e+00 6.748059999999999725e+00 1.696090000000000098e+00 1.775859999999999994e+00 4.011569999999999858e+00 5.267380000000000173e+00 1.732990000000000030e+00 8.410600000000000298e-01 2.312940000000000218e+00 7.548869999999999969e+00 -1.712930000000000064e+00 5.625600000000000378e+00 8.737159999999999371e+00 4.599479999999999791e+00 2.166640000000000121e+00 9.085779999999999745e+00 2.828640000000000043e+00 5.700239999999999974e+00 8.438459999999999184e+00 4.613909999999999734e+00 7.160949999999999704e+00 1.030893000000000015e+01 -1.807760000000000034e+00 3.720200000000000173e+00 5.985999999999999654e-02 -2.509000000000000119e-01 6.977350000000000385e+00 2.664599999999999747e-01 2.668880000000000141e+00 3.460129999999999928e+00 1.021012999999999948e+01 2.640080000000000204e+00 6.456199999999999717e-01 7.183290000000000397e+00 6.910399999999999876e-01 4.551499999999999879e+00 7.406010000000000204e+00 6.762360000000000149e+00 1.460390000000000077e+00 7.414520000000000444e+00 4.879349999999999632e+00 4.233999999999999986e+00 7.275369999999999671e+00 1.469399999999999873e-01 2.803430000000000089e+00 3.367539999999999978e+00 -2.216509999999999980e+00 6.881129999999999747e+00 3.604379999999999917e+00 4.444749999999999979e+00 2.867350000000000065e+00 2.931669999999999998e+00 2.265270000000000117e+00 6.893970000000000375e+00 3.454839999999999911e+00
5.332400000000000473e-01 1.870549999999999935e+00 4.364139999999999908e+00 -2.414800000000000002e-01 4.488800000000000345e+00 9.996699999999999475e-01 6.752049999999999663e+00 6.585400000000000142e-01 2.197430000000000216e+00 2.372419999999999973e+00 4.666690000000000005e+00 4.037230000000000096e+00 2.819970000000000088e+00 2.620299999999999851e+00 9.196899999999999409e+00 1.179089999999999971e+00 6.590830000000000410e+00 9.235160000000000480e+00 6.064250000000000362e+00 2.734449999999999825e+00 7.222889999999999588e+00 4.241690000000000182e+00 6.403679999999999595e+00 6.249959999999999738e+00 3.260470000000000201e+00 5.355319999999999858e+00 9.960350000000000037e+00 5.239740000000000286e+00 1.919389999999999930e+00 1.039902999999999977e+01 -1.292740000000000000e+00 5.757810000000000095e+00 1.043983000000000061e+01 9.479999999999999538e-02 1.976879999999999971e+00 1.205200000000000021e-01 3.889139999999999819e+00 1.506769999999999943e+00 7.215209999999999901e+00 2.078419999999999934e+00 5.243400000000000283e+00 6.324130000000000251e+00 1.106899999999999967e-01 1.535090000000000066e+00 7.311110000000000220e+00 -1.876360000000000028e+00 5.138300000000000090e+00 6.895529999999999937e+00 -1.555539999999999923e+00 3.217509999999999870e+00 3.781410000000000160e+00 4.525789999999999758e+00 6.460169999999999746e+00 3.771189999999999820e+00 2.784609999999999808e+00 2.240479999999999805e+00 3.499490000000000212e+00 5.731199999999999628e-01 6.536730000000000373e+00 2.898050000000000015e+00
1.150419999999999998e+00 2.441800000000000082e-01 2.104719999999999924e+00 1.404150000000000009e+00 6.915619999999999656e+00 1.283549999999999969e+00 6.492689999999999628e+00 7.159100000000000463e-01 4.239359999999999573e+00 -1.036249999999999893e+00 3.262669999999999959e+00 1.704660000000000064e+00 7.745300000000000518e-01 2.707590000000000163e+00 8.807570000000000121e+00 -2.256489999999999885e+00 5.984600000000000364e+00 7.530960000000000321e+00 3.943350000000000133e+00 2.292819999999999858e+00 9.162670000000000314e+00 1.452309999999999990e+00 6.018080000000000318e+00 7.855500000000000149e+00 3.457299999999999818e-01 3.749500000000000055e-01 1.014907999999999966e+01 6.324480000000000324e+00 3.762350000000000083e+00 9.638999999999999346e+00 -1.064100000000000046e-01 6.462600000000000122e+00 9.971080000000000609e+00 1.948809999999999931e+00 3.973110000000000142e+00 4.884000000000000147e-02 2.221169999999999867e+00 1.741100000000000092e+00 7.143889999999999851e+00 -2.517599999999999838e-01 4.853449999999999598e+00 6.483329999999999593e+00 5.749480000000000146e+00 1.582570000000000032e+00 6.880460000000000242e+00 3.621350000000000069e+00 4.826150000000000162e+00 7.048729999999999940e+00 4.899899999999999811e-01 2.106069999999999887e+00 3.585290000000000088e+00 -1.556380000000000097e+00 5.377519999999999634e+00 3.425339999999999829e+00 4.897800000000000153e+00 2.114650000000000141e+00 2.632569999999999855e+00 2.296990000000000087e+00 5.294190000000000396e+00 3.052130000000000010e+00
5.942499999999999449e-01 7.645000000000000406e-02 2.116880000000000095e+00 1.230150000000000077e+00 6.798300000000000232e+00 1.558720000000000105e+00 6.876070000000000348e+00 1.367699999999999916e+00 4.315690000000000026e+00 -1.912269999999999914e+00 3.679310000000000080e+00 2.048299999999999788e+00 1.187200000000000061e-01 2.282389999999999919e+00 8.915430000000000632e+00 -1.735249999999999959e+00 5.934919999999999973e+00 8.503569999999999851e+00 3.809270000000000156e+00 2.495169999999999888e+00 8.138109999999999289e+00 2.209600000000000009e+00 5.892409999999999926e+00 8.187400000000000233e+00 4.230990000000000251e+00 6.974990000000000023e+00 1.029195999999999955e+01 6.338729999999999976e+00 3.735020000000000007e+00 1.002336000000000027e+01 4.589080000000000048e+00 3.570699999999999985e-01 9.989359999999999573e+00 2.310610000000000053e+00 3.460589999999999833e+00 1.039466000000000001e+01 1.887270000000000003e+00 1.025959999999999983e+00 7.133210000000000051e+00 2.052499999999999880e-01 4.708479999999999777e+00 7.174489999999999590e+00 6.048899999999999721e+00 1.501570000000000071e+00 7.124240000000000350e+00 4.160440000000000360e+00 4.984980000000000189e+00 6.839100000000000179e+00 5.043900000000000050e-01 2.553380000000000205e+00 3.032169999999999810e+00 -1.247020000000000017e+00 5.998009999999999842e+00 2.765190000000000037e+00 4.763919999999999710e+00 2.052090000000000192e+00 3.091299999999999937e+00 2.699650000000000105e+00 6.075330000000000119e+00 3.440139999999999976e+00
-6.392000000000000459e-02 2.018819999999999837e+00 4.789579999999999949e+00 4.582700000000000107e-01 3.148899999999999810e+00 1.141289999999999916e+00 6.152359999999999829e+00 6.755700000000000038e-01 2.225839999999999819e+00 2.215500000000000025e+00 5.359689999999999621e+00 4.309770000000000323e+00 4.551020000000000287e+00 2.546479999999999855e+00 9.411490000000000578e+00 2.594699999999999784e-01 5.144000000000000128e+00 7.804079999999999906e+00 5.230489999999999640e+00 4.575459999999999638e+00 7.291360000000000063e+00 2.526790000000000092e+00 6.109079999999999622e+00 1.019513000000000069e+01 4.945359999999999978e+00 4.878770000000000273e+00 1.039633000000000074e+01 6.760810000000000208e+00 1.203780000000000072e+00 1.077022999999999975e+01 3.626800000000000024e-01 5.156209999999999738e+00 1.068782999999999994e+01 2.469800000000000217e+00 1.532010000000000094e+00 1.025333000000000006e+01 3.972570000000000157e+00 2.315490000000000048e+00 6.751030000000000086e+00 2.654959999999999987e+00 6.010329999999999728e+00 7.265640000000000320e+00 -8.000899999999999679e-01 2.595050000000000079e+00 7.167080000000000339e+00 -2.120220000000000216e+00 6.427760000000000140e+00 6.400409999999999933e+00 -1.498040000000000038e+00 3.291929999999999801e+00 2.757190000000000030e+00 4.214940000000000353e+00 7.146200000000000330e+00 3.393310000000000048e+00 2.260170000000000012e+00 2.900450000000000195e+00 3.297940000000000094e+00 5.039299999999999891e-01 7.189809999999999590e+00 3.918109999999999982e+00
7.946130000000000138e+00 3.900600000000000178e-01 1.956120000000000081e+00 4.515520000000000422e+00 2.789400000000000213e-01 1.824729999999999963e+00 6.302850000000000286e+00 1.569890000000000008e+00 4.458210000000000228e+00 5.702449999999999797e+00 4.022509999999999586e+00 1.721000000000000085e+00 1.860400000000000109e-01 2.306760000000000144e+00 8.719099999999999184e+00 -1.144300000000000095e+00 6.325820000000000221e+00 9.133229999999999293e+00 4.563170000000000393e+00 2.368799999999999795e+00 8.433790000000000120e+00 3.036849999999999827e+00 5.353089999999999904e+00 9.224800000000000111e+00 4.806239999999999846e+00 7.308040000000000092e+00 1.034792000000000023e+01 -9.717999999999999972e-01 3.960719999999999796e+00 1.030461999999999989e+01 9.027800000000000269e-01 7.274269999999999570e+00 1.009492999999999974e+01 3.242049999999999876e+00 3.377029999999999976e+00 1.075741999999999976e+01 2.594700000000000006e+00 1.246629999999999905e+00 7.321500000000000341e+00 9.212299999999999933e-01 4.546509999999999607e+00 7.501089999999999591e+00 6.502510000000000012e+00 8.164799999999999836e-01 6.951209999999999667e+00 5.498330000000000162e+00 5.094879999999999853e+00 7.574699999999999989e+00 -4.405200000000000227e-01 2.692190000000000083e+00 2.859230000000000160e+00 -2.288219999999999921e+00 6.250469999999999970e+00 2.988919999999999799e+00 4.170960000000000001e+00 2.479309999999999903e+00 3.237709999999999866e+00 2.238440000000000207e+00 6.336789999999999701e+00 3.490299999999999958e+00
2.813309999999999977e+00 1.313000000000000000e-01 5.092200000000000060e-01 5.168300000000000116e-01 4.527079999999999771e+00 1.767209999999999948e+00 7.422119999999999607e+00 1.905890000000000084e+00 3.412900000000000045e+00 -2.679959999999999898e+00 5.413549999999999862e+00 4.279230000000000089e+00 6.082499999999999574e-01 2.222500000000000142e+00 9.627840000000000842e+00 -2.710729999999999862e+00 6.401279999999999859e+00 8.052319999999999922e+00 3.241870000000000029e+00 2.189579999999999860e+00 6.297299999999999898e+00 1.689440000000000053e+00 6.152519999999999989e+00 8.517060000000000741e+00 -3.225179999999999936e+00 6.757869999999999600e+00 1.075430000000000064e+01 -1.568529999999999980e+00 2.917139999999999844e+00 7.264599999999999946e-01 1.399790000000000090e+00 6.813500000000000334e+00 1.730800000000000116e-01 3.087499999999999911e+00 2.734420000000000073e+00 1.082620000000000005e+01 7.176200000000000356e-01 1.647000000000000020e+00 7.147509999999999586e+00 -5.373599999999999488e-01 4.980739999999999945e+00 7.800270000000000259e+00 5.565400000000000347e+00 8.941999999999999948e-01 6.845720000000000027e+00 3.381720000000000059e+00 4.925650000000000084e+00 6.627519999999999634e+00 1.375690000000000079e+00 2.977419999999999956e+00 3.812800000000000189e+00 -4.411700000000000066e-01 6.771029999999999660e+00 3.241449999999999942e+00 5.008210000000000051e+00 2.661659999999999915e+00 4.411109999999999864e+00 3.361660000000000093e+00 6.817669999999999675e+00 4.505899999999999572e+00
9.624599999999999822e-01 2.214900000000000091e+00 5.120730000000000004e+00 2.843600000000000017e-01 4.097909999999999719e+00 8.327799999999999647e-01 6.913269999999999804e+00 1.439650000000000096e+00 2.295139999999999958e+00 3.630939999999999834e+00 5.676639999999999908e+00 4.710630000000000095e+00 3.232779999999999987e+00 2.535460000000000047e+00 9.453229999999999578e+00 -1.288900000000000046e-01 4.744369999999999976e+00 7.371640000000000192e+00 5.233920000000000350e+00 2.069960000000000022e+00 5.333499999999999908e+00 2.190430000000000099e+00 6.868610000000000326e+00 9.697219999999999729e+00 2.538460000000000161e+00 4.985190000000000232e+00 4.017800000000000260e-01 4.875659999999999883e+00 2.036010000000000097e+00 4.609699999999999909e-01 -1.938100000000000100e-01 5.579790000000000028e+00 9.657970000000000610e+00 1.089509999999999978e+00 1.524350000000000094e+00 1.027261999999999986e+01 3.483060000000000045e+00 1.217160000000000020e+00 7.109810000000000407e+00 2.397660000000000124e+00 5.240330000000000155e+00 6.924669999999999881e+00 -6.127899999999999459e-01 1.921759999999999913e+00 7.030070000000000263e+00 -2.444139999999999979e+00 5.038999999999999702e+00 6.734280000000000044e+00 -7.552999999999999714e-01 3.885749999999999815e+00 3.239349999999999952e+00 7.694900000000000073e-01 1.517100000000000115e-01 3.232409999999999783e+00 3.546139999999999848e+00 3.519719999999999960e+00 3.671419999999999906e+00 1.327020000000000088e+00 6.863879999999999981e+00 3.684270000000000156e+00
5.160900000000000487e-01 2.378709999999999880e+00 4.029119999999999813e+00 6.835999999999999854e-01 3.868780000000000108e+00 7.320299999999999585e-01 6.109539999999999971e+00 8.859599999999999698e-01 2.015019999999999811e+00 2.555009999999999781e+00 5.960029999999999717e+00 4.822980000000000267e+00 4.212889999999999802e+00 2.116779999999999884e+00 9.572200000000000486e+00 -5.863500000000000378e-01 5.616999999999999993e+00 7.700709999999999944e+00 4.737040000000000362e+00 2.302020000000000177e+00 5.794170000000000265e+00 3.369099999999999984e+00 6.030890000000000306e+00 8.263270000000000337e+00 4.223569999999999602e+00 4.690789999999999793e+00 1.019626000000000055e+01 6.756890000000000285e+00 1.727400000000000047e+00 9.876670000000000726e+00 -8.900200000000000333e-01 5.851110000000000255e+00 1.018999999999999941e-02 1.699429999999999996e+00 1.400109999999999966e+00 6.106000000000000316e-01 3.166729999999999823e+00 1.353490000000000082e+00 7.324699999999999989e+00 1.440280000000000005e+00 4.009660000000000224e+00 7.525520000000000209e+00 7.137389999999999901e+00 1.465829999999999966e+00 6.447879999999999612e+00 -2.367729999999999890e+00 5.318769999999999776e+00 5.974529999999999674e+00 -1.571299999999999919e+00 3.730659999999999865e+00 2.564919999999999867e+00 -3.830220000000000180e+00 6.960609999999999964e+00 2.931569999999999787e+00 3.137350000000000083e+00 3.354969999999999786e+00 3.671219999999999928e+00 4.870399999999999729e-01 6.674030000000000129e+00 3.342130000000000045e+00
-5.075499999999999456e-01 2.947760000000000158e+00 4.464850000000000207e+00 8.022299999999999986e-01 4.128560000000000230e+00 1.862009999999999943e+00 7.440710000000000157e+00 3.987600000000000033e-01 1.551099999999999923e+00 2.294560000000000155e+00 6.175819999999999865e+00 4.595220000000000304e+00 3.533199999999999896e+00 2.650640000000000107e+00 1.052134000000000036e+01 -2.998700000000000254e-01 5.676800000000000068e+00 6.959450000000000358e+00 5.810389999999999944e+00 3.828689999999999927e+00 7.892719999999999736e+00 3.079950000000000188e+00 5.819899999999999629e+00 1.013794000000000040e+01 5.266569999999999752e+00 4.748120000000000118e+00 1.106813999999999965e+01 7.810529999999999973e+00 5.412000000000000144e-01 1.051023999999999958e+01 1.171399999999999997e+00 4.059179999999999566e+00 1.080344000000000015e+01 2.262490000000000112e+00 1.846970000000000001e+00 1.284459999999999935e+00 4.407650000000000290e+00 1.917040000000000077e+00 8.275290000000000035e+00 1.918220000000000036e+00 6.990669999999999717e+00 7.292530000000000179e+00 -7.767899999999999805e-01 2.950349999999999806e+00 7.182540000000000369e+00 -2.794709999999999805e+00 6.175320000000000142e+00 6.949089999999999989e+00 -1.910970000000000057e+00 3.705330000000000013e+00 2.526720000000000077e+00 8.745670000000000499e+00 3.157499999999999751e-01 3.939550000000000107e+00 2.006390000000000118e+00 3.588270000000000071e+00 4.362479999999999691e+00 6.375600000000000156e-01 7.368669999999999831e+00 2.911309999999999842e+00
5.394700000000000051e-01 1.990200000000000025e-01 2.138790000000000191e+00 1.210010000000000030e+00 6.894490000000000229e+00 1.519619999999999971e+00 6.895010000000000083e+00 1.330449999999999910e+00 4.349569999999999936e+00 -1.919219999999999926e+00 3.639710000000000001e+00 1.968310000000000004e+00 1.914500000000000091e-01 2.300440000000000040e+00 8.869310000000000471e+00 -1.644370000000000109e+00 5.969719999999999693e+00 8.603930000000000078e+00 3.848289999999999988e+00 2.500609999999999999e+00 8.127819999999999823e+00 2.100210000000000132e+00 5.917410000000000281e+00 8.309269999999999712e+00 4.361799999999999677e+00 7.014739999999999753e+00 1.028092999999999968e+01 6.305480000000000196e+00 3.717029999999999834e+00 1.005162999999999940e+01 4.490910000000000402e+00 2.381099999999999883e-01 1.002283000000000079e+01 2.324790000000000134e+00 3.513850000000000140e+00 1.033013000000000048e+01 1.861450000000000049e+00 1.023279999999999967e+00 7.187660000000000160e+00 2.167199999999999960e-01 4.760989999999999611e+00 7.174430000000000085e+00 6.103850000000000442e+00 1.369739999999999958e+00 7.121109999999999829e+00 4.238400000000000389e+00 4.871010000000000062e+00 6.978609999999999758e+00 5.347300000000000386e-01 2.562300000000000022e+00 2.945479999999999876e+00 -1.263689999999999980e+00 6.023530000000000051e+00 2.864889999999999937e+00 4.802679999999999616e+00 2.072459999999999969e+00 3.095219999999999860e+00 2.613599999999999923e+00 6.162320000000000242e+00 3.488750000000000018e+00
4.388099999999999778e-01 2.347329999999999917e+00 4.670090000000000074e+00 6.336300000000000265e-01 3.085150000000000059e+00 1.259549999999999947e+00 6.241109999999999935e+00 1.071309999999999985e+00 2.622959999999999958e+00 2.269039999999999946e+00 5.818789999999999907e+00 4.256370000000000431e+00 4.432439999999999714e+00 1.721610000000000085e+00 9.821839999999999904e+00 -1.378000000000000058e-01 5.238400000000000389e+00 7.650400000000000311e+00 4.607800000000000118e+00 4.850900000000000212e+00 7.728040000000000020e+00 2.786919999999999842e+00 6.134229999999999627e+00 1.003983999999999988e+01 5.149919999999999831e+00 4.765760000000000218e+00 1.057142999999999944e+01 7.068150000000000155e+00 1.271279999999999966e+00 1.048212999999999973e+01 4.858999999999999986e-01 5.166809999999999903e+00 1.037653000000000070e+01 2.022780000000000022e+00 1.084179999999999922e+00 1.029893000000000036e+01 4.038100000000000023e+00 2.266690000000000094e+00 7.385880000000000223e+00 2.277610000000000134e+00 6.178200000000000358e+00 7.193609999999999616e+00 -7.192999999999999394e-02 2.653160000000000185e+00 7.078120000000000189e+00 -2.258849999999999802e+00 6.371290000000000120e+00 6.765740000000000087e+00 -1.435869999999999980e+00 3.595660000000000078e+00 3.063740000000000130e+00 4.363690000000000069e+00 7.085639999999999716e+00 3.271630000000000038e+00 2.508220000000000116e+00 3.129719999999999835e+00 3.260209999999999830e+00 1.911899999999999988e-01 6.978989999999999583e+00 3.491750000000000131e+00