8.417029999999999790e-01 -3.194779999999999842e-01 4.062890000000000112e-01 5.950929999999999831e-01 -1.832820000000000005e-01 -6.708749999999999991e-01 6.766900000000000692e-02 -6.679910000000000014e-01 -5.270700000000000385e-01 -5.475179999999999492e-01 -6.811279999999999557e-01 -3.184599999999999931e-02 7.181200000000000083e-02 -3.242499999999999827e-01 8.851799999999999946e-02 -4.950860000000000261e-01 7.728469999999999507e-01 1.254200000000000037e-01 -1.390430999999999973e+00 -9.595890000000000253e-01 6.971129999999999827e-01 -6.245789999999999953e-01 3.576529999999999987e-01 3.279969999999999830e-01 -2.446919999999999928e-01 -2.743929999999999980e-01 -4.786860000000000004e-01 -2.206309999999999938e-01 -2.435890000000000000e-01 5.167939999999999756e-01 8.040350000000000552e-01 1.096919999999999895e+00 4.337909999999999822e-01 8.482299999999999562e-02 5.591679999999999984e-01 -1.147510000000000030e+00 -1.444999999999999930e-02 2.113539999999999863e-01 3.448910000000000031e-01 7.031770000000000520e-01 6.906210000000000404e-01 7.060440000000000049e-01 -6.253779999999999895e-01 1.656509999999999927e-01 3.591260000000000008e-01 1.155987000000000098e+00 -7.291619999999999768e-01 1.178440000000000043e-01 -2.437829999999999997e-01 -8.519400000000000583e-02 -4.326100000000000084e-02 1.100991000000000053e+00 4.831130000000000146e-01 -6.217519999999999714e-01 -9.015039999999999720e-01 3.953280000000000127e-01 -1.719400000000000095e-01 -1.172389999999999960e-01 -2.646000000000000019e-01 -4.308870000000000200e-01
-3.312660000000000049e-01 -7.987400000000000055e-02 2.050999999999999872e-03 -6.299259999999999859e-01 -1.913519999999999943e-01 3.908470000000000000e-01 -1.959891000000000050e+00 -1.528772999999999938e+00 -6.596600000000000241e-01 1.293007000000000017e+00 4.542559999999999931e-01 -1.097777999999999921e+00 7.169119999999999937e-01 -1.258039999999999992e-01 1.781689999999999940e-01 2.669309999999999738e-01 -7.066630000000000411e-01 -1.418274000000000035e+00 8.308769999999999767e-01 -2.197684999999999889e+00 -1.693483999999999989e+00 7.728979999999999739e-01 7.473009999999999931e-01 -2.635629999999999917e-01 -6.262790000000000301e-01 -3.956999999999999580e-03 9.501929999999999543e-01 1.120420000000000027e-01 5.361160000000000370e-01 6.474010000000000042e-01 5.836080000000000156e-01 6.143729999999999469e-01 -2.771959999999999980e-01 9.223999999999999561e-03 -2.887950000000000239e-01 1.752070000000000016e-01 4.018200000000000244e-02 1.022728000000000081e+00 6.569869999999999877e-01 -7.719000000000000167e-03 -4.234789999999999943e-01 -4.743900000000000200e-02 -6.834310000000000107e-01 -5.276779999999999804e-01 1.482799999999999896e+00 -1.181502999999999970e+00 1.309676999999999980e+00 2.419086000000000070e+00 8.747650000000000148e-01 1.164571999999999941e+00 -5.530410000000000048e-01 -1.232204999999999995e+00 -5.151639999999999553e-01 -4.950700000000000101e-01 1.283504999999999896e+00 5.585989999999999567e-01 -8.815939999999999888e-01 -1.317300000000000137e-01 1.816010000000000124e-01 4.843589999999999840e-01
-3.206260000000000221e-01 -7.656399999999999872e-01 -4.464259999999999895e-01 -3.548000000000000043e-01 -1.604559999999999875e-01 -3.779870000000000174e-01 -1.526700000000000002e-01 -4.424489999999999812e-01 -1.332099999999999951e-01 -6.441719999999999668e-01 4.676719000000000293e+00 -2.491438000000000041e+00 1.121874000000000038e+00 6.445070000000000521e-01 -1.590376000000000012e+00 2.487600000000000089e-01 -6.499299999999999522e-02 -6.537119999999999598e-01 4.061700000000000033e-02 -2.745009999999999950e-01 -9.453160000000000451e-01 -1.111410000000000037e-01 -1.633849000000000107e+00 4.883990000000000276e-01 -2.740799999999999834e-02 2.427650000000000086e-01 -1.944690000000000030e-01 -1.028310000000000057e+00 2.769229999999999747e-01 1.007789000000000046e+00 5.994200000000000222e-02 2.653030000000000110e-01 3.128859999999999975e-01 8.326989999999999670e-01 -2.873200000000000198e-01 1.326921000000000017e+00 -2.975200000000000067e-01 1.814979999999999927e-01 7.749190000000000245e-01 -3.428260000000000196e-01 -1.296509999999999885e-01 9.057880000000000376e-01 -1.273289999999999977e-01 1.666420000000000012e+00 1.989339999999999997e-01 3.172559999999999825e-01 -6.649190000000000378e-01 9.681260000000000421e-01 1.764449999999999907e-01 4.708999999999999644e-03 -2.117459999999999898e-01 6.248070000000000013e-01 -5.250660000000000327e-01 -1.060620000000000035e-01 -4.110019999999999785e-01 -2.802294999999999980e+00 1.743794000000000066e+00 3.954039999999999777e-01 -2.077050000000000007e-01 -5.768140000000000489e-01
-1.431531000000000109e+00 -2.287810000000000121e-01 1.260707999999999940e+00 7.720350000000000268e-01 7.930660000000000487e-01 -6.455579999999999652e-01 2.726149999999999962e-01 -5.728100000000000414e-01 -3.690950000000000064e-01 4.101879999999999971e-01 -7.552069999999999617e-01 5.901469999999999771e-01 3.502100000000000213e-01 -5.328450000000000131e-01 -1.004069999999999963e-01 -1.064459000000000044e+00 1.874819000000000013e+00 1.073847999999999914e+00 2.888350000000000084e-01 7.912590000000000456e-01 5.511939999999999618e-01 -3.141539999999999888e-01 -7.506110000000000282e-01 -2.990590000000000193e-01 -9.746010000000000506e-01 -9.523500000000000021e-02 -2.388849999999999862e-01 -1.477600000000000025e-01 3.213360000000000105e-01 -1.824510000000000021e-01 2.452120000000000133e-01 4.016680000000000250e-01 -3.825560000000000072e-01 5.603449999999999820e-01 3.408999999999999808e-01 2.222159999999999969e-01 -2.271100000000000063e-01 1.757700000000000096e-01 5.762810000000000432e-01 -3.688159999999999772e-01 -5.618269999999999653e-01 -1.898539999999999950e-01 1.872260000000000035e-01 -1.286859999999999893e+00 -5.183900000000000174e-01 4.787370000000000236e-01 -4.779900000000000260e-01 -9.745059999999999834e-01 -6.461799999999999489e-02 5.616399999999999865e-02 -2.153200000000000114e-01 -5.324429999999999996e-01 -1.044637999999999955e+00 -5.439709999999999823e-01 2.070447999999999844e+00 1.916063999999999989e+00 -6.111710000000000198e-01 -5.103579999999999783e-01 -3.642420000000000102e-01 9.968299999999999939e-01
2.155040000000000011e-01 -6.269639999999999658e-01 -2.965220000000000078e-01 -2.424379999999999868e-01 1.073533999999999988e+00 -3.687549999999999994e-01 -6.365359999999999907e-01 7.463000000000000189e-02 -5.701310000000000544e-01 9.095029999999999504e-01 2.255689999999999917e-01 -3.575249999999999817e-01 -1.436814999999999953e+00 3.616320000000000090e-01 1.068573999999999913e+00 -3.866339999999999777e-01 1.161770000000000025e-01 -7.500259999999999705e-01 -2.879160000000000053e-01 1.624780000000000113e-01 5.581799999999999956e-02 -5.455569999999999586e-01 2.392720000000000125e-01 -1.336012999999999895e+00 8.197830000000000394e-01 1.363066000000000111e+00 7.336190000000000211e-01 4.232199999999999851e-02 -5.122809999999999864e-01 -7.957530000000000436e-01 2.764619999999999855e-01 5.378389999999999560e-01 9.081500000000000128e-01 -4.302170000000000161e-01 -1.029307999999999890e+00 1.198331000000000035e+00 1.383280000000000065e+00 -8.096659999999999968e-01 -7.518460000000000143e-01 4.535830000000000140e-01 -4.286159999999999970e-01 1.293344999999999967e+00 -9.033800000000000163e-02 2.352849999999999941e-01 4.683990000000000098e-01 -1.758689999999999976e-01 -3.198800000000000254e-02 9.916669999999999652e-01 3.509990000000000054e-01 -3.946580000000000088e-01 -2.255159999999999942e-01 1.254820000000000102e-01 -6.277760000000000007e-01 -9.945819999999999661e-01 8.502659999999999663e-01 -1.869979999999999976e-01 -4.372599999999999820e-01 -1.194865000000000066e+00 2.587729999999999753e-01 1.660270000000000079e-01
1.279670000000000085e+00 -1.630934000000000106e+00 -1.591658000000000017e+00 2.372340000000000004e-01 -8.229549999999999921e-01 6.415969999999999729e-01 1.347545999999999911e+00 -1.238936000000000037e+00 -1.222941999999999974e+00 7.994229999999999947e-01 -4.493400000000000172e-02 -5.562160000000000437e-01 6.266859999999999653e-01 -2.869299999999999976e-02 1.147496000000000071e+00 -1.527940000000000131e-01 1.370190000000000019e-01 -6.248129999999999518e-01 -3.235480000000000023e-01 2.920349999999999890e-01 -5.014739999999999753e-01 7.088510000000000089e-01 5.673519999999999675e-01 7.878009999999999735e-01 9.852629999999999999e-01 -5.196380000000000443e-01 4.773729999999999918e-01 -2.837060000000000137e-01 4.224060000000000037e-01 4.817620000000000235e-01 -1.028288000000000091e+00 4.407980000000000231e-01 1.675609999999999877e-01 5.426299999999999457e-01 -7.286299999999999721e-02 5.773019999999999818e-01 3.943880000000000163e-01 9.664000000000000715e-03 5.042100000000000470e-01 -1.036715000000000053e+00 1.955149999999999944e-01 -1.341329999999999911e+00 -1.701530999999999905e+00 -2.885659999999999892e-01 -3.333180000000000032e-01 1.117636000000000074e+00 -4.438139999999999863e-01 3.713409999999999767e-01 -7.891139999999999821e-01 1.314785000000000093e+00 1.466388000000000025e+00 -1.272389999999999910e-01 2.350999999999999791e-03 -9.109699999999999465e-01 -2.262389999999999901e+00 6.876039999999999930e-01 9.743089999999999806e-01 -3.340020000000000211e-01 1.021802000000000099e+00 -5.144199999999999884e-01
-2.398649999999999949e-01 -9.684319999999999595e-01 1.872922999999999893e+00 9.620969999999999800e-01 -1.052040000000000058e-01 -1.620659999999999989e+00 -1.024161000000000099e+00 8.252739999999999521e-01 -1.130532000000000092e+00 2.186879999999999935e-01 2.021759999999999946e-01 2.407870000000000010e-01 -1.259730000000000016e+00 -2.933419999999999916e-01 1.467335000000000056e+00 -1.023600000000000031e-02 -1.069029000000000007e+00 5.317760000000000264e-01 2.517510000000000026e-01 7.746899999999999620e-02 3.112090000000000134e-01 9.267180000000000417e-01 1.363010000000000055e-01 -2.852169999999999983e-01 3.679970000000000185e-01 6.561759999999999815e-01 -1.032362000000000002e+00 4.848399999999999932e-01 1.058556999999999970e+00 1.120376999999999956e+00 -9.734939999999999705e-01 -9.435010000000000341e-01 1.763730000000000020e-01 -5.394670000000000298e-01 6.540200000000000180e-02 6.167230000000000212e-01 2.295470000000000010e-01 3.506270000000000220e-01 -1.256850000000000023e+00 5.329070000000000196e-01 -1.300509999999999999e-01 -2.729909999999999837e-01 6.609850000000000447e-01 1.320479999999999987e-01 -3.772849999999999815e-01 -1.177586000000000022e+00 3.033250000000000113e-01 1.512000000000000106e-03 -1.008364000000000038e+00 1.882409999999999917e-01 -1.041565000000000074e+00 5.589279999999999804e-01 -3.418209999999999860e-01 9.157060000000000199e-01 1.050186999999999982e+00 4.113390000000000102e-01 4.058649999999999758e-01 -1.174299999999999997e-02 -5.555560000000000498e-01 -6.431210000000000537e-01
-4.385120000000000129e-01 4.236499999999999988e-02 -1.872907000000000100e+00 3.224799999999999889e-01 9.940919999999999757e-01 -5.427710000000000035e-01 -9.495679999999999676e-01 -3.964719999999999911e-01 -9.149080000000000545e-01 2.544890000000000208e-01 4.935000000000000150e-03 5.010649999999999826e-01 1.268630000000000035e-01 -3.737702000000000080e+00 1.008771000000000084e+00 7.458700000000000052e-02 4.757509999999999795e-01 -8.971700000000000508e-02 3.917780000000000151e-01 -2.966440000000000188e-01 -2.335250000000000103e-01 6.813460000000000072e-01 5.062699999999999978e-01 2.155630000000000046e-01 -2.546450000000000102e-01 -3.862979999999999747e-01 1.431659999999999877e-01 -6.120500000000000246e-02 2.274999999999999939e-02 8.093190000000000106e-01 -1.825170000000000126e-01 3.378699999999999759e-02 -3.881060000000000065e-01 -1.054859999999999964e-01 -1.412789999999999879e-01 1.077866999999999909e+00 1.246390000000000109e+00 -2.108510000000000106e-01 -5.878699999999999898e-02 -5.775550000000000406e-01 4.875181999999999682e+00 -1.096360000000000001e+00 -6.579559999999999853e-01 -1.442722999999999978e+00 1.328280000000000016e-01 -4.590540000000000176e-01 5.943580000000000529e-01 -6.925800000000000012e-02 2.608599999999999808e-01 8.205679999999999641e-01 6.100640000000000507e-01 -3.282950000000000035e-01 -1.829115999999999964e+00 3.160229999999999984e-01 9.097659999999999636e-01 1.389799999999999924e+00 7.983350000000000168e-01 -2.537659999999999916e-01 -1.318773999999999891e+00 -3.466640000000000277e-01
-7.375800000000000134e-01 8.824889999999999679e-01 1.036510000000000042e+00 6.655590000000000117e-01 -9.141359999999999486e-01 1.132482999999999906e+00 -3.224339999999999984e-01 1.231432000000000082e+00 -6.700559999999999850e-01 -4.204439999999999844e-01 3.794629999999999947e-01 -2.059250000000000025e+00 3.419829999999999814e-01 6.003410000000000135e-01 1.569145999999999930e+00 -1.383852000000000082e+00 1.102884999999999893e+00 3.103890000000000260e-01 -1.847260000000000013e-01 -2.559310000000000196e-01 5.267209999999999948e-01 3.437580000000000080e-01 -1.033765999999999963e+00 1.625296999999999992e+00 -1.220699999999999980e-01 -9.151740000000000430e-01 -5.135200000000000181e-02 4.805030000000000134e-01 -1.657359999999999944e-01 -1.518789999999999862e-01 -1.306829999999999936e-01 7.591579999999999995e-01 -1.199732000000000021e+00 1.030959999999999932e-01 5.009639999999999649e-01 2.026030000000000053e-01 -5.547170000000000156e-01 -1.348794000000000048e+00 -1.269287999999999972e+00 -1.569301999999999975e+00 -1.570449999999999902e-01 2.844190000000000218e+00 5.641979999999999773e-01 1.058297999999999961e+00 -1.907349999999999879e-01 7.584999999999999520e-01 9.374719999999999720e-01 -2.564900000000000166e-02 1.604540000000000133e-01 -6.470270000000000188e-01 -7.190879999999999495e-01 8.014860000000000317e-01 -8.141410000000000036e-01 -2.294338999999999906e+00 1.062853999999999965e+00 1.610820000000000030e-01 -6.061069999999999514e-01 1.434179999999999899e-01 -1.361833999999999989e+00 -9.863999999999999505e-03
4.719829999999999859e-01 -1.875445999999999946e+00 -4.345729999999999871e-01 2.852759999999999740e-01 -3.626260000000000039e-01 -1.556639999999999968e-01 -1.268848999999999894e+00 -7.865379999999999594e-01 1.455116000000000076e+00 -7.522500000000000020e-02 1.352511000000000019e+00 3.342769999999999908e-01 -2.485634000000000121e+00 7.957170000000000076e-01 7.999190000000000467e-01 -1.283110000000000084e-01 7.598559999999999759e-01 2.217389999999999917e-01 1.042697999999999903e+00 -3.154049999999999909e-01 -4.816090000000000093e-01 1.088924999999999921e+00 1.353922999999999988e+00 -3.057460000000000178e-01 -6.729129999999999834e-01 -1.520640000000000047e-01 2.856730000000000103e-01 2.837990000000000235e-01 -5.444930000000000048e-01 -2.728099999999999969e-02 4.652819999999999734e-01 1.142487999999999948e+00 3.585309999999999886e-01 -5.791030000000000344e-01 -2.277530000000000110e-01 5.488300000000000400e-01 6.567790000000000017e-01 -1.276237000000000066e+00 -1.537916999999999978e+00 -1.038390000000000007e-01 -9.137020000000000142e-01 -7.396430000000000504e-01 6.165559999999999929e-01 -8.705859999999999710e-01 -3.557400000000000007e-01 7.465000000000000281e-03 -3.278400000000000203e-01 -4.067890000000000117e-01 8.266750000000000487e-01 1.399291000000000063e+00 5.812220000000000164e-01 1.383429999999999938e-01 2.781379999999999963e-01 -7.648869999999999836e-01 -1.084597999999999951e+00 -1.821440000000000003e-01 1.964470000000000105e-01 5.146920000000000384e-01 7.529120000000000257e-01 4.280950000000000033e-01
1.612570000000000114e-01 2.875519999999999743e-01 -5.075939999999999896e-01 -2.300800000000000067e-01 1.769920000000000104e-01 1.193209999999999965e-01 -6.821300000000000141e-01 3.699870000000000103e-01 2.601488999999999940e+00 8.410619999999999763e-01 2.693929999999999936e-01 -7.901780000000000470e-01 7.982059999999999711e-01 7.520850000000000035e-01 -1.040230000000000044e-01 2.684000000000000188e-03 -3.029789999999999983e-01 -8.427300000000000069e-02 -3.269469999999999876e-01 1.107461000000000029e+00 6.558110000000000328e-01 -5.994119999999999449e-01 3.621090000000000142e-01 7.374249999999999972e-01 7.718800000000000661e-02 8.403199999999999559e-02 -2.549239999999999839e-01 -4.738660000000000094e-01 -1.941239999999999910e-01 -2.240800000000000083e-02 -6.979919999999999458e-01 -3.495159999999999934e-01 -1.458669999999999911e+00 -7.139800000000000313e-02 -1.090730000000000033e-01 -1.115463000000000093e+00 -2.874760000000000093e-01 3.700999999999999845e-01 -2.715090000000000003e-01 -5.144410000000000371e-01 -5.442299999999999915e-01 -6.327409999999999979e-01 1.155990000000000073e+00 -5.808259999999999534e-01 -8.318799999999999528e-01 6.856489999999999529e-01 -4.947239999999999971e-01 3.038730000000000042e-01 5.633690000000000087e-01 3.749270000000000103e-01 -2.573320000000000052e-01 4.248560000000000114e-01 2.605379999999999918e-01 9.862130000000000063e-01 -1.708957999999999977e+00 -1.056900000000000062e-01 2.434910000000000130e-01 8.824400000000000022e-01 -1.734012000000000109e+00 6.833719999999999795e-01
8.516600000000000559e-02 3.994119999999999893e-01 -6.463680000000000536e-01 1.314910000000000023e+00 -1.035439999999999916e+00 -6.696229999999999682e-01 1.158247999999999944e+00 1.325530000000000097e+00 -2.755200000000000010e-02 7.385899999999999688e-01 1.283600000000000019e-02 2.178599999999999981e-01 -4.796170000000000155e-01 -6.303189999999999626e-01 -1.003649999999999959e-01 -9.451030000000000264e-01 -6.674590000000000245e-01 -5.674559999999999604e-01 -1.030580999999999969e+00 -1.420698000000000016e+00 -2.854000000000000200e-03 2.249054000000000109e+00 -2.792209999999999970e-01 -1.098584000000000005e+00 5.612799999999999734e-02 7.842670000000000474e-01 -1.817860000000000031e-01 3.256370000000000098e-01 5.738360000000000127e-01 -9.848749999999999449e-01 -1.741476000000000024e+00 -1.476000000000000055e-02 -1.497739999999999905e-01 -1.601625000000000076e+00 -3.252720000000000056e-01 1.038629999999999942e+00 6.850990000000000135e-01 5.010470000000000201e-01 8.907659999999999467e-01 -4.223480000000000012e-01 2.589960000000000040e-01 -2.671490000000000253e-01 4.743789999999999951e-01 6.745480000000000365e-01 3.643049999999999899e-01 1.729395999999999933e+00 9.103139999999999565e-01 5.442400000000000015e-02 -6.620399999999999618e-01 -2.046109999999999873e-01 6.033960000000000434e-01 1.903209999999999902e-01 -7.907729999999999482e-01 -4.806900000000000062e-02 -1.922590000000000132e-01 4.981840000000000157e-01 5.639990000000000281e-01 -1.931877999999999984e+00 -5.704179999999999806e-01 1.011076000000000086e+00
1.419451999999999936e+00 -1.248369000000000062e+00 2.282740000000000047e-01 -1.069285000000000041e+00 -8.956640000000000157e-01 8.367599999999999483e-01 1.336070000000000035e-01 -1.424999999999999878e-01 1.220577000000000023e+00 1.518400000000000027e-01 6.255700000000000149e-02 -5.628799999999999776e-02 7.612849999999999895e-01 -8.235019999999999563e-01 -1.110516000000000059e+00 -1.653462999999999905e+00 -6.625199999999999978e-01 -1.907281999999999922e+00 7.023190000000000266e-01 1.007003000000000092e+00 1.538130000000000053e-01 1.000489999999999990e-01 2.082080000000000042e-01 -1.152236999999999956e+00 -2.074449999999999905e-01 1.644470000000000098e-01 -8.562060000000000226e-01 -2.564640000000000253e-01 -1.941529999999999923e-01 1.197092999999999963e+00 1.886408000000000085e+00 8.206740000000000146e-01 7.839850000000000430e-01 5.858430000000000026e-01 -4.680699999999999861e-01 2.474119999999999930e-01 -7.956630000000000091e-01 -7.126919999999999922e-01 1.463329999999999909e-01 2.193849999999999967e-01 6.981829999999999981e-01 2.805320000000000036e-01 2.903939999999999855e-01 8.509370000000000545e-01 6.885149999999999881e-01 -1.412015999999999938e+00 -5.921469999999999789e-01 -6.263299999999999423e-02 3.398939999999999739e-01 1.046151000000000053e+00 5.193579999999999863e-01 9.431799999999999906e-02 6.608439999999999870e-01 -5.145750000000000046e-01 -5.725179999999999714e-01 6.400000000000000524e-04 -1.357399999999999926e-02 -7.179400000000000226e-01 2.199740000000000029e-01 -6.293410000000000393e-01
-1.310739999999999961e-01 9.814789999999999903e-01 5.589790000000000036e-01 4.113370000000000082e-01 -2.394969999999999877e-01 9.001900000000000179e-02 6.448409999999999975e-01 -1.082189999999999958e-01 -1.303839999999999999e-01 -7.619329999999999714e-01 1.129629999999999940e-01 -3.390929999999999778e-01 6.858760000000000412e-01 5.838399999999999840e-02 1.821401000000000048e+00 -3.985779999999999879e-01 -5.745980000000000532e-01 4.066690000000000027e-01 2.344690000000000107e-01 3.027070000000000038e-01 9.107030000000000403e-01 3.230999999999999844e-02 1.062840000000000035e-01 -8.335240000000000427e-01 2.046449999999999936e-01 -4.449999999999999789e-02 -7.818439999999999834e-01 4.631250000000000089e-01 6.582259999999999778e-01 2.883879999999999777e-01 -2.790369999999999795e-01 -7.131380000000000496e-01 2.121159999999999990e-01 -7.849690000000000278e-01 -1.537219999999999975e-01 -3.195479999999999987e-01 -1.375319999999999876e-01 -6.505109999999999504e-01 -6.217200000000000504e-01 -5.102579999999999893e-01 -5.739610000000000545e-01 -1.306180000000000119e-01 -3.096200000000000063e-01 2.921090000000000075e-01 2.767100000000000115e-01 3.783380000000000076e-01 2.910000000000000087e-02 1.456714999999999982e+00 -8.121159999999999490e-01 6.902400000000000202e-02 -3.719850000000000101e-01 -8.104010000000000380e-01 -7.030729999999999480e-01 -4.612870000000000026e-01 1.096572000000000102e+00 1.383669999999999956e+00 -1.598043000000000102e+00 7.840030000000000054e-01 -2.327269999999999894e-01 -4.336539999999999839e-01
1.120603999999999933e+00 -3.119620000000000171e-01 -1.380649000000000015e+00 -1.363485000000000058e+00 -9.742709999999999981e-01 -4.503440000000000221e-01 -6.564399999999999402e-02 -3.279000000000000248e-01 1.498889999999999945e-01 3.991669999999999940e-01 2.125179000000000151e+00 3.856359999999999788e-01 8.325099999999999723e-01 2.098589999999999900e-01 -2.774090000000000167e-01 5.979259999999999575e-01 -8.202070000000000194e-01 -1.332414999999999905e+00 1.758599999999999886e-01 2.540229999999999988e-01 5.229570000000000052e-01 -6.188890000000000224e-01 4.139880000000000226e-01 -5.975500000000000256e-02 2.195368000000000208e+00 2.163130000000000053e-01 -2.594190000000000107e-01 6.521749999999999492e-01 -9.381059999999999954e-01 -8.211199999999999610e-01 -4.445870000000000100e-01 7.406869999999999843e-01 2.100013000000000130e+00 -8.443910000000000027e-01 3.639700000000000157e-01 8.070519999999999916e-01 -1.449870000000000048e-01 1.284869999999999901e-01 1.380969999999999975e-01 -5.847999999999999900e-03 1.937349999999999905e-01 1.557814999999999950e+00 -5.179580000000000295e-01 4.271500000000000297e-02 9.717900000000000149e-02 -1.824017999999999917e+00 7.820000000000000562e-03 -9.765540000000000331e-01 -3.038000000000000075e-02 -3.073179999999999801e-01 -1.989199999999999996e-02 2.576530000000000209e-01 4.866570000000000062e-01 3.457930000000000170e-01 -3.196660000000000057e-01 -2.690462999999999827e+00 -6.845160000000000133e-01 -5.140999999999999737e-02 1.186793999999999905e+00 1.576400000000000023e-01
-2.365919999999999968e-01 3.668390000000000262e-01 3.119999999999999944e-03 -1.882169999999999954e-01 -7.091500000000000581e-02 -3.847949999999999982e-01 1.182560000000000000e-01 2.008785000000000043e+00 -1.601002000000000036e+00 4.386300000000000199e-01 -4.798129999999999895e-01 -1.425659999999999983e-01 8.616999999999999660e-02 1.503549999999999887e-01 4.119559999999999889e-01 5.061529999999999641e-01 -6.636300000000000532e-02 1.105568000000000106e+00 1.159183000000000074e+00 1.661148000000000069e+00 -1.980263000000000106e+00 -4.960019999999999984e-01 2.101860000000000117e-01 -6.407939999999999747e-01 8.602999999999999536e-03 -3.730800000000000088e-02 8.360459999999999559e-01 1.998570000000000069e-01 -1.224455999999999989e+00 5.340299999999999908e-02 2.575000000000000032e-03 2.327600000000000155e-02 -6.121450000000000502e-01 -1.350000000000000089e-01 5.721570000000000267e-01 1.558470000000000133e-01 -1.342257000000000033e+00 -9.158760000000000234e-01 8.719759999999999733e-01 5.209650000000000114e-01 1.283992999999999940e+00 -7.565779999999999728e-01 3.033350000000000213e-01 -3.728199999999999847e-01 -6.761120000000000463e-01 -1.407583999999999946e+00 -7.563069999999999515e-01 1.400869999999999893e-01 1.039044000000000079e+00 -1.146449000000000051e+00 7.678920000000000190e-01 1.262293000000000109e+00 -5.985679999999999890e-01 5.571979999999999711e-01 -4.854040000000000021e-01 -6.819000000000000408e-03 8.499200000000000088e-01 -1.354008000000000100e+00 -6.010440000000000227e-01 1.041242000000000001e+00
-7.772010000000000307e-01 -7.135029999999999983e-01 9.959419999999999940e-01 -9.175500000000000322e-02 -2.758789999999999853e-01 4.258489999999999776e-01 -4.842870000000000230e-01 5.372749999999999471e-01 1.174903000000000031e+00 -7.331000000000000016e-02 1.209052000000000016e+00 4.175860000000000127e-01 2.818749999999999867e-01 1.702760000000000107e-01 6.736569999999999503e-01 1.532930000000000126e-01 -2.389890000000000070e-01 5.248140000000000027e-01 2.864309999999999912e-01 1.155337999999999976e+00 3.932729999999999837e-01 -2.793919999999999737e-01 -4.791389999999999816e-01 -8.180999999999999384e-02 -3.375369999999999759e-01 -4.134749999999999814e-01 -8.569189999999999863e-01 -3.971700000000000230e-02 1.156989000000000045e+00 1.093350000000000016e-01 -1.861119999999999997e-01 1.174859000000000098e+00 -1.856441000000000008e+00 -1.724390000000000089e-01 -5.406729999999999592e-01 6.819110000000000449e-01 -1.125836999999999977e+00 -1.115310000000000024e+00 -1.975159999999999971e-01 -1.961799999999999933e-01 -9.020120000000000360e-01 -4.780909999999999882e-01 1.016461000000000059e+00 2.070480000000000098e-01 -3.754589999999999872e-01 -9.889900000000000080e-02 4.850990000000000024e-01 -1.035009999999999958e-01 6.359110000000000040e-01 -5.399500000000000133e-02 -4.131900000000000017e-01 6.177099999999999952e-02 -8.053599999999999648e-01 -4.394399999999999973e-01 6.369789999999999619e-01 2.659329999999999750e-01 -4.156699999999999978e-02 7.899439999999999795e-01 -8.235350000000000170e-01 -5.533339999999999925e-01
8.470860000000000056e-01 -1.201230000000000020e+00 -6.030309999999999837e-01 3.541699999999999710e-02 -2.778999999999999873e-02 1.145061000000000107e+00 -2.517889999999999850e-01 1.454150000000000054e+00 2.469686999999999966e+00 1.267954999999999943e+00 1.231894999999999962e+00 -5.439499999999999891e-02 2.905929999999999902e-01 9.120610000000000106e-01 2.729440000000000199e-01 -4.202870000000000217e-01 -4.537849999999999939e-01 -1.697790000000000132e-01 -2.460789999999999922e-01 8.037860000000000005e-01 5.665639999999999565e-01 9.929810000000000025e-01 -2.231019999999999948e-01 3.344130000000000158e-01 -3.200760000000000272e-01 6.247400000000000175e-02 -9.735000000000000597e-02 -1.719179999999999875e-01 -3.855469999999999731e-01 -7.234760000000000080e-01 -8.726570000000000160e-01 2.464600000000000124e-01 -1.649712999999999985e+00 -1.454850000000000032e-01 -6.760800000000000143e-02 -8.908709999999999685e-01 1.179779999999999995e-01 1.617169999999999996e-01 -5.113290000000000335e-01 -8.999690000000000190e-01 -8.236019999999999452e-01 -8.944320000000000048e-01 8.890120000000000244e-01 -2.150950000000000084e-01 -5.702340000000000186e-01 2.820200000000000137e-02 2.301700000000000135e-01 3.531119999999999814e-01 -1.222400000000000049e-02 9.809520000000000461e-01 4.471419999999999839e-01 -2.422130000000000116e-01 -7.156099999999999961e-02 2.967770000000000130e-01 -1.799554000000000098e+00 -1.172549999999999981e-01 3.154000000000000137e-01 9.130270000000000330e-01 -2.497091000000000172e+00 -3.649000000000000160e-02
-4.005799999999999916e-01 -3.850020000000000109e-01 -1.295759999999999967e-01 3.591099999999999848e-02 -3.557139999999999747e-01 -1.239149999999999974e+00 9.818480000000000540e-01 7.419160000000000199e-01 -9.604019999999999779e-01 9.478370000000000406e-01 -8.624290000000000012e-01 6.190189999999999859e-01 5.972650000000000459e-01 8.740069999999999784e-01 4.404870000000000174e-01 -1.442700000000000059e-02 -1.003093999999999930e+00 1.880400000000000127e-01 1.584430000000000005e-01 -1.655561999999999978e+00 6.210029999999999717e-01 1.061131000000000046e+00 -1.319990000000000052e-01 5.248699999999999477e-01 -1.377086999999999950e+00 4.703199999999999742e-02 -9.090279999999999472e-01 -5.658659999999999801e-01 -1.574820000000000109e-01 8.012559999999999683e-01 -5.590640000000000054e-01 -3.045809999999999906e-01 5.109890000000000265e-01 -6.076139999999999874e-01 6.456579999999999542e-01 1.432762000000000091e+00 3.020329999999999959e-01 6.619669999999999721e-01 -7.626490000000000213e-01 2.827520000000000033e-01 5.750859999999999861e-01 -9.426069999999999727e-01 -6.033499999999999974e-02 -1.686650000000000094e-01 3.978140000000000009e-01 3.992100000000000093e-01 6.189459999999999962e-01 -2.746199999999999752e-01 7.822900000000000686e-02 -7.874590000000000201e-01 -5.147009999999999641e-01 -5.241660000000000208e-01 8.203780000000000516e-01 2.276029999999999998e-01 4.444499999999999840e-02 6.322330000000000449e-01 9.303200000000000358e-02 -7.799639999999999906e-01 1.947619999999999907e-01 -1.241400000000000003e-01