-1.230223000000000066e+00 1.300570000000000059e-01 -2.040000000000000147e-02 9.983799999999999619e-02 4.786800000000000083e-02 2.295520000000000060e-01 -3.109489999999999754e-01 -3.881410000000000138e-01 -1.474860000000000060e-01 -6.612510000000000332e-01 -5.658199999999999896e-01 -2.061250000000000027e-01 4.852520000000000167e-01 1.447807000000000066e+00 -2.485610000000000042e-01 9.930149999999999810e-01 -2.467020000000000046e-01 -2.471337000000000117e+00 -1.378656000000000104e+00 6.316299999999999693e-02 -6.582329999999999570e-01 1.420990000000000031e-01 2.892560000000000131e-01 -1.042029000000000094e+00 7.837579999999999547e-01 -1.838499999999999857e-02 -2.145839999999999970e-01 5.197739999999999583e-01 7.249600000000000488e-01 -1.056020000000000014e-01 2.490509999999999946e-01 -7.036860000000000337e-01 -6.899910000000000210e-01 1.312860000000000138e-01 1.036256999999999984e+00 3.422140000000000182e-01 1.364962999999999926e+00 2.699400000000000063e-02 -5.843099999999999683e-02 -8.181079999999999464e-01 1.427334000000000103e+00 3.031249999999999778e-01 4.290459999999999829e-01 -1.677728000000000108e+00 1.274005999999999972e+00 -3.367040000000000033e-01 3.674510000000000276e-01 6.944000000000000172e-02 -1.149609999999999937e-01 -1.002974999999999950e+00 2.149147999999999836e+00 -8.442300000000000360e-01 7.657300000000000217e-02 5.124689999999999523e-01 2.254000000000000101e-02 -9.278929999999999678e-01 8.704330000000000123e-01 4.744579999999999909e-01 -1.063909999999999995e-01 1.123939999999999939e-01
4.536290000000000044e-01 -3.171700000000000075e-01 -1.935399999999999898e-01 -1.116392000000000051e+00 7.327050000000000507e-01 1.143682000000000087e+00 1.673694000000000015e+00 1.853670000000000040e-01 5.729319999999999968e-01 -2.499250000000000083e-01 -3.267289999999999917e-01 -4.133419999999999872e-01 -1.988449999999999940e-01 -8.974010000000000042e-01 -2.229309999999999903e-01 -6.687070000000000514e-01 -3.778799999999999937e-01 8.910580000000000167e-01 -1.060567000000000037e+00 -4.177600000000000202e-01 6.639199999999999546e-01 2.266450000000000131e-01 -2.933029999999999804e-01 4.437300000000000272e-02 3.931270000000000042e-01 7.693759999999999488e-01 1.382700000000000040e-01 9.293209999999999527e-01 -4.189629999999999743e-01 -2.821509999999999851e-01 1.101415000000000033e+00 -7.414809999999999457e-01 -1.225900000000000080e-02 -2.978480000000000016e-01 9.577109999999999790e-01 1.860070000000000057e-01 -2.211110000000000020e-01 6.849589999999999845e-01 -1.589019999999999877e-01 4.984819999999999807e-01 -4.293150000000000022e-01 2.364870000000000028e-01 -7.904459999999999820e-01 1.256110000000000004e-01 -1.590159999999999907e-01 6.765409999999999480e-01 2.599299999999999874e-02 -4.569949999999999846e-01 -1.516113000000000044e+00 -8.351300000000000390e-02 -6.170670000000000321e-01 3.523950000000000138e-01 2.781020000000000159e-01 -1.889605999999999897e+00 8.173660000000000370e-01 -2.444870000000000099e-01 1.040490000000000026e-01 -1.002660000000000107e+00 7.881789999999999630e-01 4.250289999999999901e-01
1.951459999999999861e-01 -5.772119999999999473e-01 3.900100000000000233e-01 -1.863070000000000004e-01 -4.490000000000000176e-04 -9.237000000000000419e-03 -7.228189999999999893e-01 -4.159229999999999872e-01 -7.504279999999999839e-01 1.916859999999999953e-01 -3.501710000000000100e-01 -8.295399999999999996e-02 7.520350000000000090e-01 1.927339999999999887e-01 -1.457816999999999918e+00 5.111109999999999820e-01 -1.188920999999999895e+00 1.272719999999999962e-01 -1.919649999999999967e-01 9.897650000000000059e-01 -4.614099999999999868e-01 2.016139999999999877e-01 -4.522550000000000181e-01 2.958060000000000134e-01 -2.847330000000000139e-01 -1.190210000000000018e-01 5.966280000000000472e-01 1.266600000000000018e-02 -2.733299999999999966e-02 2.681080000000000130e-01 2.852819999999999800e-01 5.474539999999999962e-01 9.497900000000000231e-01 -2.023250000000000048e-01 -9.190819999999999546e-01 -1.223299999999999943e-01 -7.188499999999999890e-01 -5.566700000000000120e-02 -4.231900000000000245e-02 1.677869999999999917e-01 1.053485999999999922e+00 5.394899999999999696e-02 2.046050000000000091e-01 -3.142150000000000221e-01 2.752580000000000027e-01 -2.615100000000000063e-02 -9.459670000000000023e-01 6.279850000000000154e-01 -9.404099999999999959e-02 8.617590000000000527e-01 -2.685690000000000022e-01 -4.109479999999999800e-01 -7.657899999999999430e-02 4.547199999999999853e-02 3.326350000000000140e-01 1.442542999999999909e+00 1.517429999999999890e-01 -1.642700000000000063e-02 3.550530000000000075e-01 -5.869569999999999510e-01
-1.771310000000000107e-01 3.253110000000000168e-01 -3.858349999999999835e-01 3.928940000000000210e-01 -6.801340000000000163e-01 -2.794989999999999974e-01 -6.277299999999999547e-02 5.767889999999999961e-01 -5.196110000000000451e-01 7.471300000000000163e-02 2.225989999999999913e-01 -2.352249999999999897e-01 1.349809999999999899e-01 -4.099479999999999791e-01 1.916039999999999965e-01 -4.366680000000000006e-01 1.133856999999999893e+00 -1.041288999999999909e+00 -1.955300000000000094e-02 -4.518179999999999974e-01 6.063479999999999981e-01 2.973740000000000272e-01 7.003139999999999921e-01 -1.172735000000000083e+00 -2.726589999999999847e-01 9.452690000000000259e-01 -4.421699999999999936e-02 -3.929920000000000080e-01 -5.729659999999999753e-01 2.181309999999999916e-01 -8.277039999999999953e-01 8.409529999999999506e-01 5.841239999999999766e-01 8.768430000000000391e-01 -5.739699999999999802e-01 -6.030010000000000092e-01 4.768249999999999988e-01 -3.948360000000000203e-01 3.357339999999999769e-01 -1.032348999999999961e+00 -2.874780000000000113e-01 6.961589999999999723e-01 7.568150000000000155e-01 -5.764909999999999757e-01 6.493980000000000308e-01 1.362780000000000102e-01 -2.308840000000000059e-01 6.148270000000000124e-01 -5.707799999999999679e-02 3.553529999999999744e-01 -6.298850000000000282e-01 -3.140890000000000071e-01 3.015660000000000007e-01 -8.341800000000000603e-02 3.631170000000000231e-01 -6.609410000000000007e-01 9.442799999999999805e-02 8.315599999999999381e-02 -5.625449999999999617e-01 1.003962000000000021e+00
-1.242498000000000102e+00 5.848950000000000538e-01 -3.058069999999999955e-01 -7.087899999999999756e-02 -5.247099999999999681e-02 -5.682000000000000384e-01 -2.025150000000000006e-01 -4.258009999999999851e-01 4.604650000000000132e-01 2.780710000000000126e-01 2.168680000000000052e-01 -4.049719999999999986e-01 2.026129999999999876e-01 -3.339590000000000058e-01 7.906210000000000182e-01 -6.956879999999999731e-01 6.918450000000000433e-01 -3.120169999999999888e-01 6.234699999999999687e-01 6.651669999999999527e-01 -6.884670000000000512e-01 4.064470000000000027e-01 -9.493770000000000264e-01 -6.094889999999999475e-01 -3.435650000000000093e-01 2.293689999999999896e-01 -5.406879999999999464e-01 -5.340570000000000039e-01 -2.794519999999999782e-01 -4.409279999999999866e-01 1.369809999999999917e-01 -9.202599999999999669e-01 4.979370000000000185e-01 5.797160000000000091e-01 1.327364999999999906e+00 -1.280149999999999899e-01 -1.532560000000000033e-01 -7.394680000000000142e-01 -1.359869999999999968e-01 5.999199999999999672e-02 -6.936999999999999590e-03 7.973930000000000184e-01 4.253680000000000239e-01 9.023799999999999877e-02 7.213850000000000540e-01 3.648379999999999956e-01 -8.501149999999999540e-01 1.779168000000000083e+00 5.877199999999999785e-02 -6.545910000000000339e-01 4.201219999999999954e-01 -8.238700000000000190e-02 2.253549999999999998e-01 -2.435839999999999950e-01 6.982000000000000428e-01 7.798479999999999857e-01 -4.214310000000000000e-01 -5.096249999999999947e-01 4.014809999999999768e-01 -6.675039999999999862e-01
5.112360000000000237e-01 -7.086519999999999486e-01 -2.073399999999999965e-01 2.568270000000000275e-01 6.540030000000000010e-01 3.590769999999999795e-01 7.670059999999999656e-01 -2.980579999999999896e-01 -3.013089999999999935e-01 8.349529999999999452e-01 3.090450000000000141e-01 -5.603690000000000060e-01 7.754180000000000517e-01 1.368622000000000005e+00 1.201569000000000109e+00 6.375500000000000611e-02 2.362009999999999943e-01 -6.634759999999999547e-01 -4.523949999999999916e-01 2.439330000000000109e-01 1.722619999999999985e-01 -1.915550000000000030e-01 -4.175380000000000202e-01 -2.570709999999999940e-01 -1.577210000000000001e-01 -6.952500000000000346e-02 1.204342000000000024e+00 -1.394098999999999977e+00 -1.419040000000000079e+00 3.443709999999999827e-01 -4.172520000000000118e-01 1.647639000000000076e+00 9.861599999999999533e-02 1.842840000000000034e-01 -7.946419999999999595e-01 -7.443400000000000016e-02 -3.821660000000000057e-01 -6.685950000000000504e-01 3.490369999999999862e-01 9.218530000000000335e-01 5.439720000000000111e-01 1.229692000000000007e+00 5.216629999999999878e-01 6.384020000000000250e-01 -5.050999999999999934e-02 -4.906530000000000058e-01 -1.133959999999999968e-01 -2.738760000000000083e-01 6.431699999999999917e-02 1.052840000000000026e-01 -8.711299999999999599e-02 4.278930000000000233e-01 7.206320000000000503e-01 -2.669500000000000206e-01 -1.031233000000000066e+00 -7.879599999999999937e-01 -6.782669999999999533e-01 -8.121319999999999650e-01 -1.190328000000000053e+00 -1.538251000000000035e+00
3.875839999999999841e-01 1.184579999999999939e-01 -2.435009999999999952e-01 -2.606202000000000130e+00 1.780610000000000026e+00 1.261401999999999912e+00 -7.031680000000000152e-01 -5.866069999999999895e-01 8.261960000000000415e-01 -7.820589999999999486e-01 -1.613110000000000099e-01 2.899499999999999994e-02 2.298550000000000038e-01 -1.003559000000000090e+00 6.530479999999999619e-01 -5.945899999999999519e-01 2.716609999999999858e-01 1.435685000000000100e+00 1.229599000000000109e+00 -6.640150000000000219e-01 -3.303420000000000245e-01 9.438950000000000395e-01 1.020604999999999984e+00 3.613640000000000185e-01 5.520960000000000312e-01 3.445349999999999802e-01 2.337470000000000103e-01 7.860699999999999632e-02 1.042918999999999929e+00 -2.556809999999999916e-01 -1.066549999999999998e-01 -1.055318999999999896e+00 -4.143240000000000256e-01 2.641656999999999922e+00 -1.982229999999999936e+00 -8.330720000000000347e-01 5.462489999999999846e-01 6.139310000000000045e-01 -9.797500000000000653e-02 -1.121304000000000078e+00 4.696980000000000044e-01 -9.623960000000000292e-01 7.114979999999999638e-01 -6.822740000000000471e-01 -1.881549999999999889e-01 2.910360000000000169e-01 2.826759999999999828e-01 -9.754350000000000520e-01 5.548700000000000160e-02 -4.015560000000000240e-01 -3.948019999999999863e-01 1.031686000000000103e+00 1.268186000000000035e+00 1.664619999999999989e-01 -7.584089999999999998e-01 -1.293060000000000098e+00 -6.570059999999999789e-01 -2.026863000000000081e+00 6.166530000000000067e-01 3.857909999999999950e-01
-4.297900000000000331e-02 -1.256029999999999924e-01 3.733899999999999719e-02 -6.237920000000000131e-01 5.254500000000000143e-02 1.763943999999999956e+00 1.429113000000000078e+00 6.083600000000000119e-01 1.020558999999999994e+00 1.982530000000000125e-01 1.258340000000000014e+00 -3.436330000000000218e-01 1.704417999999999989e+00 -5.815270000000000161e-01 -4.606629999999999892e-01 -9.308140000000000303e-01 1.044397000000000020e+00 3.259999999999999704e-02 -7.228240000000000220e-01 1.302010000000000112e-01 -3.868840000000000057e-01 1.699079000000000006e+00 -1.208703000000000083e+00 -5.445969999999999978e-01 -5.422320000000000473e-01 -1.603719999999999868e-01 3.868659999999999877e-01 1.233938999999999897e+00 -4.800989999999999980e-01 -1.304397999999999946e+00 -6.707170000000000076e-01 -6.813379999999999992e-01 -1.391350000000000087e-01 -1.056011999999999951e+00 2.555230000000000001e-01 -7.833459999999999868e-01 -2.988199999999999884e-02 1.971499999999999989e-02 9.552429999999999533e-01 -3.595979999999999732e-01 -3.722500000000000253e-01 -1.387919999999999987e-01 5.842859999999999721e-01 -9.456799999999999928e-02 -6.236460000000000337e-01 9.301800000000000346e-02 -3.143029999999999990e-01 3.883139999999999925e-01 8.070760000000000156e-01 -1.915939999999999865e-01 6.763350000000000195e-01 -2.082081000000000071e+00 1.089952999999999950e+00 2.792100000000000137e-01 -1.761954000000000020e+00 2.778800000000000159e-01 -9.502999999999999295e-03 1.073701999999999934e+00 -5.265579999999999705e-01 -8.058119999999999727e-01
1.693099999999999883e-01 2.446500000000000064e-02 -6.605710000000000193e-01 -5.839299999999999491e-01 1.173642999999999992e+00 -5.650969999999999605e-01 1.474355000000000082e+00 5.627180000000000515e-01 -1.075210999999999917e+00 -4.186360000000000081e-01 5.680340000000000389e-01 -3.203779999999999961e-01 1.096779999999999977e-01 -1.347342999999999957e+00 3.560800000000000076e-02 5.649579999999999602e-01 4.367489999999999983e-01 1.289101000000000052e+00 3.061900000000000038e-02 2.843249999999999944e-01 -2.576879999999999726e-01 3.103040000000000243e-01 4.405089999999999839e-01 2.535660000000000136e-01 -5.104319999999999968e-01 -3.238610000000000100e-01 -4.614200000000000246e-02 -9.404900000000000482e-01 -7.629660000000000331e-01 1.902449999999999974e-01 -8.722569999999999490e-01 1.331249999999999933e-01 8.317539999999999933e-01 -7.066529999999999756e-01 5.560950000000000060e-01 3.815140000000000198e-01 6.184800000000000297e-01 -4.317829999999999724e-01 1.071817999999999937e+00 -7.125559999999999672e-01 -1.443306999999999896e+00 -2.397479999999999889e-01 3.674439999999999928e-01 2.222400000000000070e-02 7.436000000000000387e-01 -1.019010000000000055e-01 5.572789999999999688e-01 -7.937490000000000379e-01 -6.397310000000000496e-01 5.731039999999999468e-01 -4.558550000000000102e-01 2.610140000000000238e-01 -8.026630000000000154e-01 2.906630000000000047e-01 4.466459999999999875e-01 9.390099999999999836e-02 -6.262269999999999781e-01 1.133780999999999928e+00 -3.142490000000000006e-01 -4.720200000000000090e-02
-1.947830000000000117e-01 -1.985260000000000080e-01 3.244119999999999782e-01 -9.628010000000000179e-01 9.789839999999999653e-01 -8.181150000000000366e-01 -8.690480000000000427e-01 1.066945999999999950e+00 5.020600000000000063e-02 -5.240420000000000078e-01 -6.343200000000000227e-02 2.476230000000000098e-01 -1.121086999999999945e+00 -1.050245000000000095e+00 -6.781709999999999683e-01 -3.119819999999999816e-01 -1.026237000000000066e+00 -3.017000000000000150e-03 -6.835299999999999709e-02 1.865475999999999912e+00 -4.732330000000000148e-01 4.352059999999999818e-01 -1.064823000000000075e+00 -2.663218000000000085e+00 7.883010000000000295e-01 -1.114965999999999902e+00 -3.657540000000000235e-01 3.577620000000000244e-01 -2.191120000000000012e-01 1.295795999999999948e+00 2.764699999999999935e-01 -1.145253000000000076e+00 4.442180000000000017e-01 7.727840000000000265e-01 1.283093999999999957e+00 2.386379999999999890e-01 8.679700000000000193e-01 9.127530000000000365e-01 7.897990000000000288e-01 6.563830000000000497e-01 -4.547410000000000063e-01 5.023320000000000007e-01 -1.621539999999999926e-01 -9.263890000000000180e-01 -2.087400000000000089e-01 -7.697950000000000070e-01 -6.034439999999999804e-01 4.750800000000000023e-01 2.674270000000000258e-01 1.220989000000000102e+00 -2.585839999999999805e-01 -7.740439999999999543e-01 4.178390000000000160e-01 -8.493020000000000014e-01 -1.782440000000000135e-01 3.101140000000000008e-01 1.705513000000000057e+00 1.514030999999999905e+00 -1.890280000000000016e-01 2.445150000000000101e-01
-2.621899999999999925e-02 3.364610000000000101e-01 8.584340000000000304e-01 -2.824300000000000144e-01 4.068359999999999754e-01 -3.792260000000000075e-01 6.317300000000000693e-02 -4.947099999999999831e-01 -7.825349999999999806e-01 7.638719999999999954e-01 3.930589999999999917e-01 9.335529999999999662e-01 -2.915889999999999871e-01 1.621574000000000071e+00 4.322059999999999791e-01 -2.067390000000000061e-01 5.742900000000000088e-02 -2.445999999999999824e-03 9.043219999999999592e-01 -1.284820000000000129e-01 3.280500000000000083e-01 2.891020000000000256e-01 -2.177553000000000072e+00 -6.511449999999999738e-01 -9.793889999999999540e-01 -4.495870000000000144e-01 -3.937700000000000228e-02 4.008939999999999726e-01 -6.669869999999999965e-01 -4.867259999999999920e-01 3.284679999999999822e-01 -3.845600000000000129e-01 2.212480000000000002e-01 -1.766230000000000022e-01 4.696000000000000174e-02 1.583440000000000125e-01 -9.169299999999999673e-02 2.063010000000000121e-01 1.394209000000000032e+00 2.125180000000000125e-01 7.255899999999999572e-01 5.499009999999999732e-01 -1.888680000000000081e-01 -6.765959999999999752e-01 -2.298729999999999940e-01 -1.271600000000000064e+00 3.617299999999999682e-02 -2.023479000000000028e+00 1.318036999999999903e+00 1.274953999999999921e+00 4.234160000000000146e-01 -3.287120000000000042e-01 -1.466069999999999873e-01 -1.642750000000000044e-01 2.259299999999999850e-02 -3.444809999999999817e-01 -8.576350000000000362e-01 -4.591169999999999973e-01 3.642259999999999942e-01 3.173570000000000002e-01
7.662499999999999867e-01 6.577859999999999818e-01 -1.250224000000000002e+00 -1.138994999999999980e+00 -1.326120000000000076e-01 -2.316364000000000090e+00 -1.498118999999999978e+00 -1.731052999999999953e+00 1.351010999999999962e+00 -4.918770000000000087e-01 5.584120000000000195e-01 -1.330823000000000089e+00 1.199311999999999934e+00 -4.104240000000000110e-01 -4.282440000000000135e-01 4.775340000000000140e-01 5.276049999999999907e-01 3.848739999999999939e-01 1.564250000000000085e-01 2.964809999999999945e-01 1.721249999999999947e+00 -7.949230000000000462e-01 5.083450000000000468e-01 1.863980000000000081e-01 -1.302700000000000038e-02 -3.646260000000000057e-01 1.393989999999999951e-01 -5.285980000000000123e-01 -2.497209999999999985e-01 -1.885400000000000131e-01 -5.212959999999999816e-01 -1.612900000000000097e-02 4.710190000000000210e-01 4.669150000000000245e-01 3.886330000000000062e-01 2.278270000000000017e-01 4.225450000000000039e-01 1.776939999999999908e-01 -1.603339999999999987e+00 -1.461780000000000024e-01 -4.834000000000000102e-02 -3.220020000000000104e-01 -6.623660000000000103e-01 5.345140000000000446e-01 1.355137999999999954e+00 -8.980499999999999594e-02 8.234800000000000453e-02 -3.027940000000000076e-01 -4.239999999999999880e-01 -3.235839999999999828e-01 -9.313820000000000432e-01 3.059086999999999890e+00 -4.589139999999999886e-01 1.907980999999999927e+00 6.733879999999999866e-01 2.234740000000000060e-01 4.715340000000000087e-01 -9.122740000000000293e-01 -2.198890000000000011e-01 4.572800000000000198e-01
2.018000000000000002e-02 4.949990000000000223e-01 6.751260000000000039e-01 -4.161659999999999804e-01 8.516489999999999894e-01 4.293719999999999759e-01 1.172528000000000015e+00 -8.053899999999999948e-02 -5.484399999999999692e-02 8.301370000000000138e-01 -6.491959999999999953e-01 -1.626479999999999870e-01 1.142309999999999937e+00 -1.285838999999999954e+00 -8.928129999999999677e-01 -8.203770000000000229e-01 -3.190379999999999883e-01 -1.973129999999999884e-01 -3.396549999999999847e-01 -7.798779999999999601e-01 -3.574749999999999872e-01 1.130562999999999985e+00 1.066219000000000028e+00 3.910179999999999767e-01 -6.037540000000000129e-01 -4.606160000000000254e-01 2.218630000000000047e-01 1.503970000000000029e-01 -2.854299999999999893e-02 2.095210000000000128e-01 -3.245970000000000244e-01 -1.381977000000000011e+00 -7.002890000000000503e-01 -4.127029999999999865e-01 1.128835000000000033e+00 6.056040000000000312e-01 2.480829999999999980e-01 -8.249090000000000034e-01 -3.290919999999999956e-01 -3.803340000000000054e-01 -6.965699999999999670e-02 3.092139999999999889e-01 -3.266399999999999859e-02 1.140263000000000027e+00 9.869029999999999747e-01 -8.502030000000000420e-01 2.102300000000000002e-02 -4.451550000000000229e-01 -1.441500000000000004e-01 -2.234289999999999887e-01 -7.612550000000000150e-01 -6.676109999999999545e-01 6.106600000000000222e-02 -7.480199999999999350e-02 -1.934170000000000056e-01 8.241939999999999822e-01 -5.436490000000000489e-01 4.914339999999999820e-01 5.153720000000000523e-01 6.907130000000000214e-01
-3.218599999999999933e-02 6.056749999999999634e-01 5.822429999999999550e-01 -5.598269999999999635e-01 3.069180000000000241e-01 2.669420000000000126e-01 2.071236999999999995e+00 1.123466000000000076e+00 6.897659999999999902e-01 -1.391564999999999941e+00 -4.231400000000000161e-01 -9.193740000000000245e-01 -3.909000000000000252e-01 9.041399999999999437e-02 3.344400000000000150e-01 -7.904039999999999955e-01 8.896349999999999536e-01 4.112250000000000072e-01 -2.338580000000000103e-01 -2.123889999999999945e-01 -3.976890000000000147e-01 -2.740679999999999783e-01 1.026450000000000001e-01 -2.892600000000000171e-01 1.218579999999999941e-01 3.587389999999999746e-01 -1.058430000000000065e-01 1.425009999999999888e-01 7.436230000000000340e-01 3.592440000000000078e-01 -4.699729999999999741e-01 -8.691429999999999989e-01 2.045100000000000043e-02 4.319400000000000323e-02 -9.545099999999999696e-01 3.227900000000000214e-02 7.216599999999999404e-02 2.518549999999999955e-01 3.843809999999999727e-01 7.653680000000000483e-01 7.032000000000000056e-03 3.163799999999999946e-02 9.336000000000000548e-03 1.257479999999999987e-01 -5.851410000000000222e-01 -3.508609999999999784e-01 -6.311740000000000128e-01 -4.640059999999999740e-01 9.206950000000000411e-01 -7.189609999999999612e-01 6.001379999999999493e-01 2.440779999999999894e-01 -7.290689999999999671e-01 7.211999999999999661e-03 6.858149999999999524e-01 -4.692999999999999949e-01 -2.854610000000000203e-01 -5.826059999999999572e-01 4.019369999999999887e-01 -6.731850000000000334e-01
1.236489999999999950e-01 -5.167640000000000011e-01 1.196979999999999988e-01 4.093829999999999969e-01 8.704819999999999780e-01 -9.103700000000000125e-01 9.831700000000000161e-02 -3.967099999999999793e-02 6.865400000000000669e-02 -2.623759999999999981e-01 1.037420000000000009e-01 3.350000000000000113e-03 8.942500000000000449e-02 1.489190000000000014e+00 6.717700000000000060e-02 2.137350000000000083e-01 5.094170000000000087e-01 8.121720000000000050e-01 -5.780509999999999815e-01 -1.094483000000000095e+00 -5.284010000000000096e-01 -8.149239999999999817e-01 -1.315530000000000033e-01 -7.140619999999999745e-01 -1.006650999999999962e+00 5.928809999999999913e-01 1.803770000000000095e-01 -3.007009999999999961e-01 -2.382410000000000083e-01 -3.499010000000000176e-01 2.201380000000000003e-01 -1.058194999999999997e+00 8.944189999999999641e-01 4.620040000000000258e-01 9.738199999999999634e-02 6.543039999999999967e-01 2.744770000000000265e-01 -9.366750000000000353e-01 4.487229999999999830e-01 -2.546010000000000217e-01 -1.327514000000000083e+00 -1.374319999999999986e-01 1.913269999999999971e-01 -3.344909999999999828e-01 6.381360000000000365e-01 2.555950000000000166e-01 4.990900000000000197e-02 -1.339037000000000033e+00 3.491279999999999939e-01 1.839444999999999997e+00 2.514109999999999956e-01 1.141226999999999991e+00 7.740829999999999655e-01 5.011489999999999556e-01 -7.470200000000000451e-02 -1.028488999999999987e+00 -2.996269999999999767e-01 -5.363959999999999839e-01 3.795439999999999925e-01 -3.607400000000000051e-01
-1.514639999999999875e-01 -1.366930000000000089e-01 -2.089550000000000018e-01 1.917210000000000025e-01 -6.372300000000000186e-02 2.957719999999999794e-01 -9.362499999999999989e-02 -1.475810999999999984e+00 -2.652300000000000144e-02 -9.969189999999999996e-01 6.202950000000000408e-01 -6.427000000000000421e-03 1.623941000000000079e+00 -1.160029999999999895e+00 -1.216936999999999935e+00 -1.581329999999999958e-01 3.046010000000000106e-01 -6.627309999999999590e-01 5.857499999999999929e-01 2.195930000000000104e-01 -5.329810000000000381e-01 1.246899999999999953e-01 8.454289999999999861e-01 3.739549999999999819e-01 -1.480658999999999947e+00 7.655870000000000175e-01 2.367224000000000217e+00 -1.343736000000000042e+00 1.821679999999999966e-01 8.746559999999999890e-01 -1.840189999999999881e-01 5.736719999999999597e-01 -9.206870000000000331e-01 -1.759300000000000030e-01 -1.206649999999999945e-01 -2.641240000000000254e-01 -8.120079999999999520e-01 -3.697239999999999971e-01 3.420090000000000074e-01 1.549699999999999966e-01 -1.932599999999999943e-02 -1.563329999999999997e-01 1.524914000000000103e+00 -7.650099999999999678e-01 -1.685520000000000074e-01 4.251469999999999971e-01 -4.927000000000000268e-01 6.210759999999999614e-01 7.461050000000000182e-01 3.771599999999999953e-01 1.357830000000000092e+00 3.313340000000000174e-01 5.631869999999999932e-01 -1.734393000000000074e+00 1.780100000000000085e-02 -2.537730000000000263e-01 -3.969999999999999918e-02 -3.298829999999999818e-01 4.057620000000000116e-01 -2.941790000000000238e-01
-9.306109999999999660e-01 4.855539999999999856e-01 -2.134099999999999886e-02 -5.277110000000000412e-01 -8.853520000000000278e-01 -1.522940000000000127e-01 6.280919999999999837e-01 -8.828700000000000436e-02 -1.221509999999999957e-01 2.000000000000000164e-05 -1.023856000000000099e+00 2.998910000000000187e-01 -1.003025000000000055e+00 5.333520000000000483e-01 1.163542000000000076e+00 -1.090354000000000045e+00 -4.650429999999999842e-01 -1.463299999999999879e-01 4.100010000000000043e-01 7.539439999999999475e-01 3.057389999999999830e-01 4.947800000000000115e-02 4.795699999999999963e-01 1.374322999999999961e+00 -4.982639999999999847e-01 4.147719999999999740e-01 1.992100000000000121e-02 1.054985000000000062e+00 1.181529999999999941e-01 6.661529999999999951e-01 5.834009999999999474e-01 4.925570000000000226e-01 -1.760559999999999903e-01 4.665400000000000102e-02 -1.474400000000000016e-02 -2.935899999999999968e-02 -6.741819999999999480e-01 -8.107680000000000442e-01 5.775399999999999978e-02 9.915159999999999529e-01 -2.571439999999999837e-01 -9.838970000000000216e-01 -1.182499999999999940e-01 -6.750530000000000141e-01 8.992269999999999985e-01 7.426500000000000323e-01 3.372979999999999867e-01 -1.534742000000000051e+00 1.433934999999999960e+00 -3.614009999999999723e-01 1.857999999999999929e-02 5.307200000000000112e-02 4.569559999999999733e-01 -7.669999999999999951e-04 -4.557280000000000220e-01 -7.657899999999999707e-01 -4.383389999999999787e-01 -6.956799999999999651e-01 1.275281000000000109e+00 -1.199853000000000058e+00
8.610299999999999621e-01 7.407099999999999795e-02 -8.790740000000000220e-01 1.989499999999999949e-02 2.363359999999999905e-01 4.720670000000000144e-01 -5.379209999999999825e-01 -5.428439999999999932e-01 -1.019606999999999930e+00 6.695489999999999498e-01 3.907990000000000075e-01 2.576280000000000237e-01 -2.041919000000000040e+00 -1.016024999999999956e+00 -1.681060999999999916e+00 3.052730000000000166e-01 2.069290000000000018e-01 1.071717999999999948e+00 -9.194059999999999455e-01 -8.168229999999999658e-01 6.284229999999999539e-01 -3.495229999999999726e-01 -2.509910000000000196e-01 1.003489999999999993e+00 -5.053339999999999499e-01 -3.690419999999999812e-01 7.730299999999999672e-02 -1.242509000000000086e+00 -6.522550000000000292e-01 -3.958309999999999884e-01 -3.408340000000000258e-01 6.638070000000000359e-01 1.173440000000000039e-01 8.857949999999999990e-01 4.053519999999999901e-01 -1.017239999999999950e-01 7.178790000000000449e-01 3.757989999999999942e-01 3.575229999999999797e-01 1.363389999999999880e-01 4.654579999999999829e-01 -2.091870000000000118e-01 4.474600000000000105e-02 -4.217099999999999738e-01 2.862399999999999944e-01 2.929950000000000054e-01 -5.869299999999999518e-01 -3.238139999999999907e-01 4.768580000000000041e-01 6.806419999999999693e-01 -9.936249999999999805e-01 1.260769999999999946e+00 1.411929999999999907e+00 2.927040000000000197e-01 -1.883906999999999998e+00 -6.857119999999999882e-01 1.586629999999999985e-01 2.150221999999999856e+00 4.312090000000000090e-01 8.808200000000000474e-01
-1.288140000000000118e-01 7.682710000000000372e-01 -1.264848999999999890e+00 2.104413999999999785e+00 3.337979999999999836e-01 9.507910000000000528e-01 -2.738670000000000271e-01 5.917820000000000302e-01 -3.422499999999999987e-01 3.440079999999999805e-01 2.791799999999999837e-01 -7.617789999999999839e-01 1.081382999999999983e+00 -3.613450000000000273e-01 3.267729999999999801e-01 7.774219999999999464e-01 -7.976140000000000452e-01 -9.829529999999999657e-01 -5.529999999999999976e-04 1.270240999999999953e+00 -1.107709000000000055e+00 -1.231830000000000008e-01 7.265629999999999589e-01 -3.185660000000000158e-01 1.269770000000000065e-01 -3.109319999999999862e-01 8.682330000000000325e-01 -2.017116000000000131e+00 -8.525279999999999525e-01 -1.715653000000000095e+00 4.293109999999999982e-01 5.269760000000000000e-01 3.615499999999999825e-01 -2.518560000000000243e-01 -2.189480000000000037e-01 7.923559999999999492e-01 -1.033300000000000052e-01 -2.482260000000000022e-01 4.330970000000000097e-01 -1.609029999999999905e-01 -7.953449999999999687e-01 1.022084999999999910e+00 -5.800140000000000295e-01 -1.104532000000000069e+00 1.111601000000000061e+00 -9.382500000000000562e-02 2.672559999999999936e-01 -4.811619999999999786e-01 -1.701108000000000064e+00 1.796600999999999893e+00 1.062238000000000016e+00 -1.400200000000000056e-01 -1.201009999999999911e+00 -2.929990000000000094e-01 1.195942000000000061e+00 -1.267608999999999986e+00 5.743599999999999817e-01 -4.848700000000000232e-01 5.974190000000000333e-01 -2.351650000000000129e-01