7.322533696459577968e+00 1.073364804436261654e-18 5.923809619917731120e-23 -3.639612622800322939e+00 6.373982298489818454e+00 1.525201406143977736e-22 4.722182844541705836e-06 -3.578284288181773563e-06 1.995832899999932053e+01
7.322533619459692389e+00 9.296448134667958673e-19 5.923809619917731120e-23 -3.639612595772971027e+00 6.373982247509160537e+00 -5.923809619917731120e-23 4.759136677712160580e-06 -3.605347503344244429e-06 1.995832905999931484e+01
7.322533449459941224e+00 1.924897777029974947e-18 5.923809619917731120e-23 -3.639612543762828611e+00 6.373982105564913958e+00 1.525201406143977736e-22 4.869948559412050423e-06 -3.715537088639539635e-06 1.995832904199928848e+01
7.322533192458608120e+00 1.017212469561282096e-18 -1.525201406143977736e-22 -3.639612488693692693e+00 6.373981846190871714e+00 1.525201406143977736e-22 5.050572341499161508e-06 -3.935846164362995795e-06 1.995832892799924707e+01
7.322532848459110788e+00 -4.883552636778562657e-19 5.923809619917731120e-23 -3.639612449882726253e+00 6.373981436417060387e+00 -5.923809619917731120e-23 5.303944773359780469e-06 -4.303279802659374651e-06 1.995832869199918136e+01
7.322532427458015469e+00 2.413791332403433954e-18 5.923809619917731120e-23 -3.639612450130136345e+00 6.373980849276835059e+00 -5.923809619917731120e-23 5.625017997275801015e-06 -4.845829412964778799e-06 1.995832831099909654e+01
7.322531939457019412e+00 3.001355541725156936e-20 -1.525201406143977736e-22 -3.639612500600837741e+00 6.373980073279268410e+00 1.525201406143977736e-22 6.006769794743096222e-06 -5.576483009484327066e-06 1.995832775199898634e+01
7.322531395456102210e+00 3.184962733156751635e-18 2.709963330127523960e-22 -3.639612609314599290e+00 6.373979106428692809e+00 1.525201406143977736e-22 6.442186495196949297e-06 -6.503228613648684279e-06 1.995832699499885621e+01
7.322530793455274356e+00 7.181848384964852930e-20 5.923809619917731120e-23 -3.639612784311169857e+00 6.373977923740516971e+00 -5.923809619917731120e-23 6.937218517032552731e-06 -7.655076437733753891e-06 1.995832599999869572e+01
7.322530122454546486e+00 -2.441590752575660574e-18 -1.525201406143977736e-22 -3.639613037640822224e+00 6.373976486244655959e+00 -5.923809619917731120e-23 7.498794058681983005e-06 -9.074038383166463858e-06 1.995832471499850769e+01
7.266219287000000193e+00 0.000000000000000000e+00 0.000000000000000000e+00 -3.749756311000000064e+00 6.411885533999999609e+00 0.000000000000000000e+00 -3.444007259999999904e-01 -4.146679970000000104e-01 1.961459617399999900e+01
7.266218682999999956e+00 0.000000000000000000e+00 0.000000000000000000e+00 -3.749756684999999923e+00 6.411885412000000173e+00 0.000000000000000000e+00 -3.444015790000000132e-01 -4.146691149999999770e-01 1.961459442399999986e+01
7.266217496000000331e+00 0.000000000000000000e+00 0.000000000000000000e+00 -3.749757419999999897e+00 6.411885157000000390e+00 0.000000000000000000e+00 -3.444031519999999902e-01 -4.146712639999999839e-01 1.961459098999999995e+01
7.266215748999999668e+00 0.000000000000000000e+00 0.000000000000000000e+00 -3.749758558999999991e+00 6.411884779000000201e+00 0.000000000000000000e+00 -3.444054120000000219e-01 -4.146744090000000216e-01 1.961458591199999901e+01
7.266213430999999723e+00 0.000000000000000000e+00 0.000000000000000000e+00 -3.749760172999999863e+00 6.411884284000000100e+00 0.000000000000000000e+00 -3.444083760000000161e-01 -4.146785760000000209e-01 1.961457913699999978e+01
7.266210575999999755e+00 0.000000000000000000e+00 0.000000000000000000e+00 -3.749762293999999940e+00 6.411883678999999781e+00 0.000000000000000000e+00 -3.444119959999999980e-01 -4.146837019999999874e-01 1.961457073300000076e+01
7.266207289999999652e+00 0.000000000000000000e+00 0.000000000000000000e+00 -3.749764888000000074e+00 6.411882989000000421e+00 0.000000000000000000e+00 -3.444161299999999870e-01 -4.146895910000000240e-01 1.961456099800000175e+01
7.266203660000000397e+00 0.000000000000000000e+00 0.000000000000000000e+00 -3.749767916999999784e+00 6.411882231999999959e+00 0.000000000000000000e+00 -3.444206570000000189e-01 -4.146960800000000225e-01 1.961455017200000128e+01
7.266199675000000191e+00 0.000000000000000000e+00 0.000000000000000000e+00 -3.749771417999999912e+00 6.411881402999999757e+00 0.000000000000000000e+00 -3.444255800000000090e-01 -4.147031789999999773e-01 1.961453820599999887e+01
7.266195299999999690e+00 0.000000000000000000e+00 0.000000000000000000e+00 -3.749775463999999836e+00 6.411880496000000207e+00 0.000000000000000000e+00 -3.444309409999999905e-01 -4.147109469999999964e-01 1.961452496900000142e+01
7.346927471999999959e+00 0.000000000000000000e+00 0.000000000000000000e+00 -3.754894568000000099e+00 6.266786960000000128e+00 0.000000000000000000e+00 2.752697100000000077e-02 1.556863569999999974e-01 2.008715759800000100e+01
7.346927426999999788e+00 0.000000000000000000e+00 0.000000000000000000e+00 -3.754895045000000042e+00 6.266786287999999594e+00 0.000000000000000000e+00 2.752700699999999917e-02 1.556868070000000104e-01 2.008715785900000128e+01
7.346927309999999878e+00 0.000000000000000000e+00 0.000000000000000000e+00 -3.754895992999999876e+00 6.266784943000000219e+00 0.000000000000000000e+00 2.752705500000000166e-02 1.556877000000000122e-01 2.008715827300000001e+01
7.346927127999999918e+00 0.000000000000000000e+00 0.000000000000000000e+00 -3.754897430999999841e+00 6.266782923000000061e+00 0.000000000000000000e+00 2.752711500000000130e-02 1.556890489999999960e-01 2.008715882899999983e+01
7.346926875000000301e+00 0.000000000000000000e+00 0.000000000000000000e+00 -3.754899405999999829e+00 6.266780173999999981e+00 0.000000000000000000e+00 2.752719099999999947e-02 1.556909049999999906e-01 2.008715951699999991e+01
7.346926557999999829e+00 0.000000000000000000e+00 0.000000000000000000e+00 -3.754901944000000213e+00 6.266776683999999875e+00 0.000000000000000000e+00 2.752728700000000098e-02 1.556932910000000114e-01 2.008716033700000025e+01
7.346926180999999723e+00 0.000000000000000000e+00 0.000000000000000000e+00 -3.754904991000000081e+00 6.266772536000000393e+00 0.000000000000000000e+00 2.752740000000000048e-02 1.556961659999999970e-01 2.008716125300000144e+01
7.346925741999999815e+00 0.000000000000000000e+00 0.000000000000000000e+00 -3.754908474000000052e+00 6.266767819000000017e+00 0.000000000000000000e+00 2.752752799999999903e-02 1.556994710000000059e-01 2.008716220999999891e+01
7.346925236999999775e+00 0.000000000000000000e+00 0.000000000000000000e+00 -3.754912410000000200e+00 6.266762516000000005e+00 0.000000000000000000e+00 2.752766900000000114e-02 1.557032299999999980e-01 2.008716320499999952e+01
7.346924651000000139e+00 0.000000000000000000e+00 0.000000000000000000e+00 -3.754916859999999801e+00 6.266756541000000347e+00 0.000000000000000000e+00 2.752782700000000124e-02 1.557075109999999929e-01 2.008716423399999940e+01
7.518176941000000113e+00 0.000000000000000000e+00 0.000000000000000000e+00 -3.634236782999999971e+00 6.315201839000000206e+00 0.000000000000000000e+00 2.808794629999999959e-01 -4.487336069999999788e-01 1.937023583299999885e+01
7.518177541000000019e+00 0.000000000000000000e+00 0.000000000000000000e+00 -3.634236631999999911e+00 6.315201323000000144e+00 0.000000000000000000e+00 2.808802049999999939e-01 -4.487347950000000196e-01 1.937023324700000160e+01
7.518178673999999617e+00 0.000000000000000000e+00 0.000000000000000000e+00 -3.634236291000000119e+00 6.315200289999999939e+00 0.000000000000000000e+00 2.808816740000000256e-01 -4.487371139999999925e-01 1.937022819199999901e+01
7.518180337999999630e+00 0.000000000000000000e+00 0.000000000000000000e+00 -3.634235738000000104e+00 6.315198738000000311e+00 0.000000000000000000e+00 2.808838730000000061e-01 -4.487405520000000148e-01 1.937022073500000019e+01
7.518182571999999730e+00 0.000000000000000000e+00 0.000000000000000000e+00 -3.634234943000000051e+00 6.315196627999999812e+00 0.000000000000000000e+00 2.808868540000000191e-01 -4.487451769999999951e-01 1.937021076599999958e+01
7.518185365999999981e+00 0.000000000000000000e+00 0.000000000000000000e+00 -3.634233881000000110e+00 6.315193956999999969e+00 0.000000000000000000e+00 2.808906159999999819e-01 -4.487509740000000247e-01 1.937019834899999893e+01
7.518188634999999564e+00 0.000000000000000000e+00 0.000000000000000000e+00 -3.634232567000000191e+00 6.315190799999999882e+00 0.000000000000000000e+00 2.808950519999999784e-01 -4.487577649999999752e-01 1.937018389400000018e+01
7.518192302000000105e+00 0.000000000000000000e+00 0.000000000000000000e+00 -3.634231006999999902e+00 6.315187215999999992e+00 0.000000000000000000e+00 2.809000779999999975e-01 -4.487654079999999768e-01 1.937016772100000139e+01
7.518196391000000034e+00 0.000000000000000000e+00 0.000000000000000000e+00 -3.634229169999999787e+00 6.315183165999999737e+00 0.000000000000000000e+00 2.809057420000000138e-01 -4.487739709999999937e-01 1.937014970499999933e+01
7.518200955000000185e+00 0.000000000000000000e+00 0.000000000000000000e+00 -3.634227012000000201e+00 6.315178588000000204e+00 0.000000000000000000e+00 2.809121270000000115e-01 -4.487835680000000216e-01 1.937012962600000066e+01
7.396382015999999560e+00 0.000000000000000000e+00 0.000000000000000000e+00 -3.769279088000000222e+00 6.468420045000000229e+00 0.000000000000000000e+00 1.352090230000000115e-01 7.826084199999999713e-02 1.992797385300000101e+01
7.396382509000000383e+00 0.000000000000000000e+00 0.000000000000000000e+00 -3.769279733999999937e+00 6.468420604000000296e+00 0.000000000000000000e+00 1.352093809999999896e-01 7.826104100000000341e-02 1.992797454900000176e+01
7.396383447999999916e+00 0.000000000000000000e+00 0.000000000000000000e+00 -3.769280950000000185e+00 6.468421668999999596e+00 0.000000000000000000e+00 1.352101619999999949e-01 7.826137599999999361e-02 1.992797577400000009e+01
7.396384836000000185e+00 0.000000000000000000e+00 0.000000000000000000e+00 -3.769282720000000086e+00 6.468423239999999907e+00 0.000000000000000000e+00 1.352114239999999967e-01 7.826180900000000162e-02 1.992797751100000170e+01
7.396386711999999974e+00 0.000000000000000000e+00 0.000000000000000000e+00 -3.769285065000000046e+00 6.468425353999999849e+00 0.000000000000000000e+00 1.352132510000000065e-01 7.826231300000000002e-02 1.992797978500000156e+01
7.396389068999999594e+00 0.000000000000000000e+00 0.000000000000000000e+00 -3.769287956999999967e+00 6.468428001000000371e+00 0.000000000000000000e+00 1.352156899999999995e-01 7.826284599999999703e-02 1.992798257500000148e+01
7.396391828999999696e+00 0.000000000000000000e+00 0.000000000000000000e+00 -3.769291278999999939e+00 6.468431091000000244e+00 0.000000000000000000e+00 1.352187179999999878e-01 7.826335800000000509e-02 1.992798575100000136e+01
7.396394936000000087e+00 0.000000000000000000e+00 0.000000000000000000e+00 -3.769294948999999839e+00 6.468434562999999748e+00 0.000000000000000000e+00 1.352223150000000096e-01 7.826381100000000257e-02 1.992798923699999847e+01
7.396398416000000253e+00 0.000000000000000000e+00 0.000000000000000000e+00 -3.769298983000000103e+00 6.468438446000000397e+00 0.000000000000000000e+00 1.352265579999999967e-01 7.826417900000000316e-02 1.992799304200000066e+01
7.396402314000000366e+00 0.000000000000000000e+00 0.000000000000000000e+00 -3.769303413999999908e+00 6.468442790000000109e+00 0.000000000000000000e+00 1.352315510000000054e-01 7.826443700000000614e-02 1.992799719499999966e+01
