-1.129891082095024979e+00 6.330610503169705083e+00 5.564065383812542842e-02 -1.180296697132133810e+00 2.114449977584901053e+00 6.694480328033699301e+00 4.786754583344166036e+00 4.414993974801934229e+00 9.415899694675822218e+00 -1.103830588795791101e+00 1.958978051998063519e+00 1.939506030532333014e+01 4.863219948381778401e+00 4.259522478697079784e+00 1.667364967196551717e+01 1.274473991625627134e+00 2.036964323198314109e+00 3.364929986684281005e+00 2.408448367318120287e+00 4.337018658524286252e+00 1.334410001331580453e+01 4.812812554266479914e+00 4.338300079616845550e-02 1.003480934616283093e+01 2.231109425787833889e+00 7.864560086634565794e-02 1.274414970151500626e+01 1.093867021378508442e+00 2.061282065316861534e+00 1.601027001326784216e+01 1.451822769278625413e+00 6.295337458444544509e+00 2.764990298483726683e+00 2.589056048683851419e+00 4.312690495656100964e+00 6.031109986731387984e+00 4.904253981691216069e+00 2.603968124425677377e-01 1.269904935079927988e+01 2.175751749204386964e+00 4.251786612320077374e+00 8.985640038368430282e+00 5.823864087766358111e+00 1.844866991595507821e+00 1.647304935024012806e+01 4.803123202425831018e+00 4.098005299949280200e+00 1.238811966742759019e+01 1.381177948243508480e+00 1.886861511789894585e+00 6.021449960268024704e+00 -2.140940874214047884e+00 4.529115496329692903e+00 6.493880649759882218e+00 4.743324529414367774e+00 4.215287134482753828e+00 1.934510968484852000e+01 4.797056260627874380e+00 1.336704058287700725e-01 5.690479355438914588e+00 -1.221331816022100059e+00 6.113576271093651648e+00 2.719880649200036249e+00 8.261603446038020548e-01 2.262600158589081811e+00 1.317521006571268316e+01 1.464779819607512801e+00 5.976303499820196485e+00 1.987129027154017891e+01 2.218154322091162811e+00 3.976784347161834710e-01 9.892129728458375126e+00 2.301755119165811880e+00 4.487111033615123645e+00 1.600061003972984253e+01 -1.114123283616224480e+00 6.240302191808507537e+00 1.566964064455896022e+01 2.856761968212469416e+00 4.111382849786220817e+00 3.196049934287407801e+00 1.507182144905124144e+00 2.122195465274645976e+00 1.896479996163014903e+01 -1.120201104588426810e+00 2.275977832641962628e+00 2.408950332572521003e+00 -1.060400531417733383e+00 2.158694900186319821e+00 9.365940315151414453e+00
-1.131372361740369481e+00 6.329863033960278607e+00 5.573065398143892124e-02 -1.188396684487647237e+00 2.114463822038806562e+00 6.700150329140966754e+00 4.792182130912870264e+00 4.413554695814907447e+00 9.413269693821034068e+00 -1.105867697123330995e+00 1.960671536388177927e+00 1.939531030573515480e+01 4.866642096800577910e+00 4.260776631332185538e+00 1.667137967159712986e+01 1.277953268188107838e+00 2.036538375911752130e+00 3.361209986175522690e+00 2.409416349427129678e+00 4.335837002031617260e+00 1.334671001309036953e+01 4.815996823746406363e+00 4.002755305105033107e-02 1.003559934546319354e+01 2.228302830899893561e+00 8.064040112192912002e-02 1.274128970205569011e+01 1.094258080810972755e+00 2.061901397651253465e+00 1.601198001326331166e+01 1.452381452989490063e+00 6.294566502057808322e+00 2.768900298346596234e+00 2.592928299863900943e+00 4.308153870561894472e+00 6.028529985844597761e+00 4.901183934314518709e+00 2.603720601188144745e-01 1.269473935121657959e+01 2.171409003637352342e+00 4.256034040835180221e+00 8.991540039296650022e+00 5.822810362128977957e+00 1.848538798013395157e+00 1.647197935067375241e+01 4.806507880833226665e+00 4.100739518648131465e+00 1.238768966718110676e+01 1.381262324208761383e+00 1.889421371065025390e+00 6.024249960458494257e+00 -2.143528681918208889e+00 4.530399921095925819e+00 6.498260650214641387e+00 4.744597947987913678e+00 4.211434951634577928e+00 1.935212968437064518e+01 4.801846543184770333e+00 1.396822268265546785e-01 5.689639355259103581e+00 -1.221870312207804510e+00 6.114457193526786405e+00 2.710950649343091712e+00 8.241274407922801748e-01 2.266753639484395677e+00 1.317377006631804726e+01 1.464676726075305302e+00 5.974493673393056703e+00 1.987090027141145043e+01 2.221813172082568233e+00 3.970021795173018231e-01 9.895969727905340463e+00 2.298665551442801380e+00 4.487366314559301017e+00 1.600333004017190675e+01 -1.113594138333729111e+00 6.239801286331876362e+00 1.567379064444717685e+01 2.853212878972753330e+00 4.106068908985061938e+00 3.186499934352774233e+00 1.504848866721780976e+00 2.120279450519985787e+00 1.896570996179760371e+01 -1.119538951783133562e+00 2.271386694649799143e+00 2.402910332119819969e+00 -1.062095606293444128e+00 2.161577801726589865e+00 9.365780315610388485e+00
-1.132873658317039123e+00 6.329105598978149949e+00 5.578065412670586698e-02 -1.196596688728593261e+00 2.114467837449350185e+00 6.705930330261121952e+00 4.797689661359820334e+00 4.412105280003315144e+00 9.410579692954518904e+00 -1.107934771182194966e+00 1.962385072052100776e+00 1.939554030615266456e+01 4.870084296555996062e+00 4.262060749635090851e+00 1.666907967122836354e+01 1.281482527621103040e+00 2.036102343154361893e+00 3.357429985659142080e+00 2.410414297409698925e+00 4.334635294233724068e+00 1.334938001285925679e+01 4.819241007678521704e+00 3.662200271877392305e-02 1.003639934475141260e+01 2.225436287374725097e+00 8.266530384250746211e-02 1.273839970260693377e+01 1.094659140281847520e+00 2.062520712864677641e+00 1.601375001325740755e+01 1.452960153911114327e+00 6.293805511433699706e+00 2.772890298207519866e+00 2.596870431382391597e+00 4.303547125869465972e+00 6.025909984942729558e+00 4.898123835636528867e+00 2.603172906488910310e-01 1.269031935163014424e+01 2.167066377831935231e+00 4.260351469188511153e+00 8.997600040230375740e+00 5.821766687800159268e+00 1.852240587165504548e+00 1.647094935110836644e+01 4.809912559295144163e+00 4.103473703060704914e+00 1.238721966693188570e+01 1.381336888258981377e+00 1.892091247234821694e+00 6.027139960658983497e+00 -2.146206369726235685e+00 4.531754499627540511e+00 6.502780650687217445e+00 4.745881247004626324e+00 4.207512751685235308e+00 1.935924968388588852e+01 4.806686962406116592e+00 1.457739621438901290e-01 5.688759355078744306e+00 -1.222478756905712949e+00 6.115368235603972913e+00 2.701840649498082225e+00 8.220046909909699551e-01 2.270997274064042504e+00 1.317231006694279571e+01 1.464553598508855581e+00 5.972663881152952214e+00 1.987045027128388597e+01 2.225541987796792576e+00 3.963058046512821231e-01 9.899819727341160558e+00 2.295525915534161410e+00 4.487581680966507669e+00 1.600615004061766555e+01 -1.113015010073068911e+00 6.239290295427026400e+00 1.567800064432777774e+01 2.849673618859599689e+00 4.100654951189212305e+00 3.176779934408903827e+00 1.502435520339662434e+00 2.118323572526035647e+00 1.896667996197284367e+01 -1.118806867419944950e+00 2.266755437104260640e+00 2.396730331654406410e+00 -1.063820595618731435e+00 2.164510754495883482e+00 9.365600316077399512e+00
-1.134374972728754205e+00 6.328338163882814449e+00 5.578065427119176245e-02 -1.204766659071553114e+00 2.114491801412348160e+00 6.711730331378752190e+00 4.803177225505272929e+00 4.410675898906934123e+00 9.407869692092306835e+00 -1.110001896747929928e+00 1.964068607631742402e+00 1.939576030656781214e+01 4.873486512970871765e+00 4.263354936857094657e+00 1.666680967086584531e+01 1.284981752677708977e+00 2.035646361851839892e+00 3.353659985145287958e+00 2.411422261967604896e+00 4.333443569608244950e+00 1.335206001262756459e+01 4.822485208697600001e+00 3.322645293306208947e-02 1.003718934404041008e+01 2.222569778024780174e+00 8.471020679247921736e-02 1.273550970315974595e+01 1.095050199528916357e+00 2.063140045297024106e+00 1.601553001325286729e+01 1.453518854131654603e+00 6.293044555162624398e+00 2.776890298071179153e+00 2.600792562429961041e+00 4.298940415663971670e+00 6.023289984043594281e+00 4.895133702637060047e+00 2.602424021327602310e-01 1.268586935203255806e+01 2.162813700127739658e+00 4.264638744002280824e+00 9.003700041149439670e+00 5.820762961929689894e+00 1.855912308662907906e+00 1.646998935153514410e+01 4.813257151902618602e+00 4.106157990661862378e+00 1.238672966668692688e+01 1.381381537599284837e+00 1.894811174767134565e+00 6.030059960867506064e+00 -2.148904006743676209e+00 4.533139112044294095e+00 6.507380651164894836e+00 4.747164545528267610e+00 4.203590552290036975e+00 1.936633968340112943e+01 4.811517296157223456e+00 1.518157151888492318e-01 5.687839354895809052e+00 -1.223147202231054997e+00 6.116279380096045770e+00 2.692700649661280643e+00 8.198119581188371141e-01 2.275251028372456741e+00 1.317084006757790071e+01 1.464400504468659880e+00 5.970854140335948301e+00 1.986994027116199035e+01 2.229300803412967991e+00 3.956093787715301846e-01 9.903609726772875987e+00 2.292396193633826851e+00 4.487747030617109445e+00 1.600902004105811827e+01 -1.112405814214501687e+00 6.238819253058608183e+00 1.568219064420742903e+01 2.846204358166303461e+00 4.095240874078202253e+00 3.167049934455462346e+00 1.499962156714772510e+00 2.116357797271191554e+00 1.896770996215549943e+01 -1.118014732134517075e+00 2.262154076832558758e+00 2.390520331183154212e+00 -1.065535602301437512e+00 2.167433690062805507e+00 9.365430316542258993e+00
-1.135826269137883537e+00 6.327580643494128410e+00 5.571065440963487297e-02 6.109764091052564794e+00 2.114529479656246824e+00 6.717459332474541966e+00 -2.513985810224097506e+00 4.409302717403841498e+00 9.405190691250602697e+00 -1.112039107512932556e+00 1.965702092182001648e+00 1.939597030697492741e+01 4.876798713104530059e+00 4.264639277154861574e+00 1.666461967051483839e+01 1.288390926915982337e+00 2.035160534218817929e+00 3.349949984641375611e+00 2.412440261371511241e+00 4.332271827485175919e+00 1.335471001239607780e+01 4.825679546531761233e+00 2.991098773776044648e-02 1.003795934334252848e+01 2.219733234466267913e+00 8.673505814172953465e-02 1.273266970370688078e+01 1.095431207838301502e+00 2.063729394693055497e+00 1.601732001324734256e+01 1.454077589517462687e+00 6.292303598638260276e+00 2.780840297936413297e+00 2.604644813906737966e+00 4.294403824592173180e+00 6.020709983159532541e+00 4.892253518247245303e+00 2.601373248717047115e-01 1.268146935241756701e+01 2.158730834820526301e+00 4.268815728069839111e+00 9.009750042036607454e+00 5.819819082438943525e+00 1.859493926819252518e+00 1.646908935194663215e+01 4.816481591496184933e+00 4.108752482749530088e+00 1.238622966645128542e+01 1.381386221477440612e+00 1.897551170424885969e+00 6.032959961083069089e+00 -2.151581574709411804e+00 4.534563690554836768e+00 6.511980651642990559e+00 4.748397947315844192e+00 4.199728437538117198e+00 1.937325968292791600e+01 4.816237322424753664e+00 1.576776557611921648e-01 5.686889354713742684e+00 -1.223865646504757487e+00 6.117190610231173942e+00 2.683700649831319396e+00 8.175791060190777948e-01 2.279434851021932218e+00 1.316940006821296549e+01 1.464237462650266108e+00 5.969074416341775269e+00 1.986938027104382343e+01 2.233009636238948215e+00 3.949230379999184581e-01 9.907269726212208028e+00 2.289336386875775009e+00 4.487862260332442510e+00 1.601191004148506991e+01 -1.111746549091395364e+00 6.238388125350341262e+00 1.568630064408339742e+01 2.842895268823903532e+00 4.089926522885258819e+00 3.157449934488014254e+00 1.497478844717943902e+00 2.114422038827297179e+00 1.896876996234188084e+01 -1.117162391465710503e+00 2.257672614002331546e+00 2.384360330713144016e+00 -1.067210711254476196e+00 2.170296557513169411e+00 9.365280316996935639e+00
-1.137257583430023811e+00 6.326813088806834351e+00 5.556065454456239616e-02 6.101884205816879181e+00 2.114602948198345711e+00 6.723169333556412219e+00 -2.508698074687606638e+00 4.407973677543227886e+00 9.402520690423646244e+00 -1.114056404003757272e+00 1.967285542489395356e+00 1.939617030737538528e+01 4.880020912870813632e+00 4.265923771858881608e+00 1.666247967017612908e+01 1.291730066834348767e+00 2.034654826412403139e+00 3.346269984145457954e+00 2.413478328600816347e+00 4.331140051405621527e+00 1.335735001216499995e+01 4.828843986960739798e+00 2.665557430428965729e-02 1.003872934265346117e+01 2.216906725071950746e+00 8.877989263030536260e-02 1.272985970425421876e+01 1.095802215920333333e+00 2.064318761309837047e+00 1.601913001324317776e+01 1.454606358383013109e+00 6.291582693536009074e+00 2.784770297807323214e+00 2.608437150423923434e+00 4.289917336310725915e+00 6.018129982287605095e+00 4.889473282405916166e+00 2.600020773087389214e-01 1.267708935278654003e+01 2.154817814924195662e+00 4.272902421955059538e+00 9.015780042893453583e+00 5.818925083014531374e+00 1.863005460301891070e+00 1.646823935234576552e+01 4.819625893977187658e+00 4.111267112266244972e+00 1.238570966622028280e+01 1.381341007757027839e+00 1.900351251621820614e+00 6.035849961310185918e+00 -2.154269057730542336e+00 4.536038285826581529e+00 6.516620652126392521e+00 4.749601382820292983e+00 4.195886374605262148e+00 1.938007968246037649e+01 4.820907109444458882e+00 1.633996825759601312e-01 5.685879354527489937e+00 -1.224634108512343111e+00 6.118091925691710564e+00 2.674780650007412053e+00 8.152962024448964229e-01 2.283588759274497448e+00 1.316796006885250669e+01 1.464034471452882569e+00 5.967324760851147047e+00 1.986877027093349213e+01 2.236698451941191657e+00 3.942267317003479987e-01 9.910829725653485411e+00 2.286316511161418319e+00 4.487937422005678023e+00 1.601483004190340154e+01 -1.111047199312502620e+00 6.238006929072112960e+00 1.569035064395783863e+01 2.839706281381094044e+00 4.084671966829457546e+00 3.147889934508880661e+00 1.494955549628012248e+00 2.112496348912311195e+00 1.896987996253451669e+01 -1.116229965716734940e+00 2.253241014225408456e+00 2.378220330236134217e+00 -1.068845888891601703e+00 2.173119356524899182e+00 9.365140317442998352e+00
-1.138678914743878945e+00 6.326035517067294833e+00 5.531065467734108676e-02 6.093934372011610812e+00 2.114706536237560552e+00 6.729009334650204899e+00 -2.503370287870011257e+00 4.406674569312509782e+00 9.399800689593584835e+00 -1.116113751684155719e+00 1.968839061228468523e+00 1.939636030777894504e+01 4.883233181092239583e+00 4.267248283518415342e+00 1.666036966984193057e+01 1.295059087146605448e+00 2.034079135783842585e+00 3.342549983645399347e+00 2.414556395847707204e+00 4.330008206913865010e+00 1.336005001192845398e+01 4.832048410243569236e+00 2.339009243794924406e-02 1.003952934195813462e+01 2.214010335422815334e+00 9.089484663204500103e-02 1.272700970481663063e+01 1.096173224042827687e+00 2.064908127904760082e+00 1.602100001323901424e+01 1.455145093155705061e+00 6.290841771343075095e+00 2.788760297675294098e+00 2.612259367307988800e+00 4.285360796819156270e+00 6.015479981406068433e+00 4.886732995223353804e+00 2.598367613486975980e-01 1.267263935314767842e+01 2.150994760795849725e+00 4.276968961993293128e+00 9.021940043736426773e+00 5.818061083580702508e+00 1.866516942412972613e+00 1.646742935274079400e+01 4.822730145302084104e+00 4.113751810122157515e+00 1.238517966599238385e+01 1.381215982208115145e+00 1.903261469371283265e+00 6.038799961556893692e+00 -2.157016386740684855e+00 4.537602983543211010e+00 6.521410652625083237e+00 4.750784732963075463e+00 4.191994345852959825e+00 1.938693968199163109e+01 4.825626810918827836e+00 1.690716239335317006e-01 5.684779354330461665e+00 -1.225482519043760599e+00 6.119023377874975189e+00 2.665760650196805415e+00 8.129134016055691303e-01 2.287802838351753909e+00 1.316651006951043712e+01 1.463791463304016993e+00 5.965565173728296422e+00 1.986808027082783568e+01 2.240477250421646360e+00 3.935202715509917848e-01 9.914359725081670405e+00 2.283296584254955075e+00 4.487982583678104653e+00 1.601786004231937355e+01 -1.110267712807852414e+00 6.237705595951722692e+00 1.569444064382764203e+01 2.836577208429408525e+00 4.079367308260835046e+00 3.138159934517610328e+00 1.492322169277915611e+00 2.110520847058972027e+00 1.897104996273825606e+01 -1.115187591386651800e+00 2.248779226502401585e+00 2.371960329741730433e+00 -1.070481066489439081e+00 2.175942155550083967e+00 9.365040317889063104e+00
-1.140110314349305431e+00 6.325217962504513736e+00 5.492065480834428665e-02 6.085884640959308811e+00 2.114870295019451341e+00 6.735029335762383162e+00 -2.497982432722188673e+00 4.405415358507109858e+00 9.397010688758474117e+00 -1.118221133452063976e+00 1.970372665474280138e+00 1.939654030818777386e+01 -2.436085185558875210e+00 4.268608789865210085e+00 1.665828066951046793e+01 1.298397987812829557e+00 2.033433428154579836e+00 3.338749983138466160e+00 2.415704480153730405e+00 4.328886242721754485e+00 1.336284001168312763e+01 4.835322799245139969e+00 2.010449088749281105e-02 1.004036934125165992e+01 2.211034099715477375e+00 9.309993721756443241e-02 1.272409970539705704e+01 1.096554215096184670e+00 2.065487477401208416e+00 1.602295001323269474e+01 1.455673828038918982e+00 6.290100866215689202e+00 2.792850297544633875e+00 2.616141413222478285e+00 4.280704154892861268e+00 6.012729980508462191e+00 4.884012605448033284e+00 2.596114112345423441e-01 1.266809935350135774e+01 2.147271655318998107e+00 4.281005331111614076e+00 9.028240044563366595e+00 5.817237152485250640e+00 1.870068356018180111e+00 1.646663935313349825e+01 4.825814413799611735e+00 4.116246542086980043e+00 1.238462966576800106e+01 1.381011213197077980e+00 1.906321823617600719e+00 6.041819961826337071e+00 -2.159833527547834642e+00 4.539277800760168624e+00 6.526380653142000554e+00 4.751957946445410030e+00 4.188022334242366362e+00 1.939386968151795543e+01 4.830426443893566457e+00 1.747034285557293176e-01 5.683569354119345718e+00 -1.226390912335613592e+00 6.119964932626123399e+00 2.656590650395191489e+00 8.103907377346226681e-01 2.292097156598815744e+00 1.316502007019379938e+01 1.463518438172295433e+00 5.963795637885334955e+00 1.986730027072550087e+01 2.244346014588189497e+00 3.927936575712601130e-01 9.917869724495977479e+00 2.280246589100336063e+00 4.487987796645296790e+00 1.602103004273630305e+01 -1.109408106683194450e+00 6.237474125999320052e+00 1.569859064369201995e+01 2.833518015747714447e+00 4.073992530129901368e+00 3.128179934511262861e+00 1.489568703679484463e+00 2.108495550362087911e+00 1.897229996295446242e+01 -1.114005371088113261e+00 2.244227199645455695e+00 2.365520329221109996e+00 -1.072126226947765160e+00 2.178774971664673377e+00 9.364970318337284994e+00
-1.141511731023114429e+00 6.324390356704692628e+00 5.440065493446501199e-02 6.077864995363609246e+00 2.115084002363004423e+00 6.741119336874388246e+00 -2.492624474917585431e+00 4.404216198926029335e+00 9.394210687932188719e+00 -1.120348617718735174e+00 1.971846304007740969e+00 1.939672030859461316e+01 -2.432932814569293445e+00 4.269993403883744598e+00 1.665626066918926540e+01 1.301676751854682124e+00 2.032707823179282336e+00 3.334949982633440779e+00 2.416902598634329102e+00 4.327784193003131996e+00 1.336566001143253857e+01 4.838597290805777718e+00 1.687888918157257404e-02 1.004123934054990031e+01 2.208008000820629757e+00 9.538511311927501402e-02 1.272117970599060932e+01 1.096925206200321634e+00 2.066066843970513212e+00 1.602496001322774433e+01 1.456192545933560289e+00 6.289349978173282452e+00 2.796970297414556050e+00 2.619993442139505913e+00 4.276037564227050503e+00 6.009929979614168971e+00 4.881372164282050896e+00 2.593559243585096263e-01 1.266355935384173570e+01 2.143728378718176675e+00 4.284941392679758820e+00 9.034580045357834877e+00 5.816453135898564497e+00 1.873569701245509478e+00 1.646587935351679022e+01 4.828818579916431375e+00 4.118681410812891741e+00 1.238408966554983337e+01 1.380706598191280277e+00 1.909472348637402339e+00 6.044849962116531472e+00 -2.162670480231041914e+00 4.541062652021080837e+00 6.531470653670311322e+00 4.753081160049337228e+00 4.184050408034388546e+00 1.940073968105111391e+01 4.835225786284073735e+00 1.801652333695625274e-01 5.682249353894850863e+00 -1.227369305436899705e+00 6.120906607037822411e+00 2.647460650603152388e+00 8.077780911172454115e-01 2.296401628653063742e+00 1.316352007089025378e+01 1.463185447384321991e+00 5.962046204553519857e+00 1.986645027063294222e+01 2.248244744520430771e+00 3.920469923193536377e-01 9.921299723904606793e+00 2.277226525603821550e+00 4.487952958356373756e+00 1.602428004314598198e+01 -1.108468329666490559e+00 6.237342519176301892e+00 1.570274064355333543e+01 2.830578891303407119e+00 4.068657546799926195e+00 3.118109934491658297e+00 1.486745221126269278e+00 2.106460373302783129e+00 1.897359996317945274e+01 -1.112693168049700976e+00 2.239664950621163442e+00 2.359020328681934231e+00 -1.073721438720143473e+00 2.181577702371418237e+00 9.364950318776314120e+00
-1.142853164798387278e+00 6.323552648396645992e+00 5.371065505160320386e-02 6.070035469170190545e+00 2.115367384750944435e+00 6.747199337965922972e+00 -2.487396328832542025e+00 4.403127261424478078e+00 9.391430687132336530e+00 -1.122466255802926804e+00 1.973229925599884860e+00 1.939688030899301197e+01 -2.429920443289988352e+00 4.271378257226130515e+00 1.665436066888721101e+01 1.304825396478875632e+00 2.031912440483024884e+00 3.331199982140679250e+00 2.418120819710074976e+00 4.326742108973010481e+00 1.336848001118393547e+01 4.841821987551725215e+00 1.377337268298843391e-02 1.004212933986440959e+01 2.204991987379100848e+00 9.772027181763659476e-02 1.271828970658672553e+01 1.097276163186192033e+00 2.066626244733866802e+00 1.602700001322395451e+01 1.456681281057557564e+00 6.288609141374866596e+00 2.801030297289368587e+00 2.623745556730866735e+00 4.271421144371931433e+00 6.007109978737480205e+00 4.878851637496398830e+00 2.590502323597235756e-01 1.265911935416176881e+01 2.140444742853051086e+00 4.288667010123758061e+00 9.040830046100239770e+00 5.815728965429339148e+00 1.876980943952020198e+00 1.646516935388480007e+01 4.831682575379720568e+00 4.121016518901246428e+00 1.238354966534293133e+01 1.380302051726711943e+00 1.912663044504140153e+00 6.047839962423541493e+00 -2.165477313236403134e+00 4.542917451936514972e+00 6.536570654200035690e+00 4.754124476368892793e+00 4.180138618415141671e+00 1.940743968059992852e+01 4.839934650206983768e+00 1.853471923543036082e-01 5.680829353660624470e+00 -1.228387732537355115e+00 6.121828349851734963e+00 2.638540650815013322e+00 8.051253078585798306e-01 2.300626169179416092e+00 1.316204007158588141e+01 1.462822525097764670e+00 5.960336822421769654e+00 1.986554027054763338e+01 2.252113491574762705e+00 3.913103783056977591e-01 9.924579723318121438e+00 2.274296410774905297e+00 4.487887966240289295e+00 1.602756004354100128e+01 -1.107458347555884792e+00 6.237330792556590175e+00 1.570679064341452857e+01 2.827829988859665189e+00 4.063452238471772837e+00 3.108119934456307298e+00 1.483871738684091612e+00 2.104425281679441095e+00 1.897492996341127736e+01 -1.111270845480700542e+00 2.235172513490881308e+00 2.352580328133232257e+00 -1.075256838552280714e+00 2.184270330695981865e+00 9.365000319198490075e+00
-1.259509999999999907e+00 6.366349999999999731e+00 5.423000000000000043e-02 -1.335409999999999986e+00 1.986990000000000034e+00 6.576459999999999972e+00 4.493159999999999599e+00 4.244830000000000325e+00 9.256719999999999615e+00 -1.470299999999999940e+00 1.569010000000000016e+00 1.906334000000000017e+01 4.439460000000000406e+00 3.937809999999999810e+00 1.638206999999999880e+01 1.165270000000000028e+00 1.988199999999999967e+00 3.308920000000000083e+00 2.062040000000000095e+00 4.085549999999999571e+00 1.311012000000000022e+01 4.601569999999999716e+00 -1.562199999999999978e-01 9.863879999999999981e+00 1.992550000000000043e+00 -1.859500000000000042e-01 1.252527000000000079e+01 7.661700000000000177e-01 1.735559999999999992e+00 1.574272999999999989e+01 1.260850000000000026e+00 6.281509999999999927e+00 2.716040000000000010e+00 2.373369999999999980e+00 4.206400000000000361e+00 5.933699999999999974e+00 4.642070000000000363e+00 -3.020000000000000115e-03 1.248358999999999952e+01 1.918260000000000076e+00 4.095139999999999780e+00 8.827199999999999491e+00 5.457889999999999908e+00 1.514899999999999913e+00 1.618963000000000108e+01 4.465650000000000119e+00 3.863109999999999822e+00 1.217319999999999958e+01 1.223629999999999995e+00 1.775379999999999958e+00 5.915140000000000065e+00 -2.334700000000000220e+00 4.421120000000000161e+00 6.381960000000000299e+00 4.281500000000000306e+00 3.837979999999999947e+00 1.901056000000000168e+01 4.654189999999999827e+00 1.575999999999999970e-02 5.591879999999999740e+00 -1.398009999999999975e+00 6.091770000000000351e+00 2.667409999999999837e+00 5.437100000000000266e-01 1.997849999999999904e+00 1.295063000000000031e+01 9.832699999999999774e-01 5.599940000000000140e+00 1.952693000000000012e+01 2.022829999999999906e+00 1.891700000000000048e-01 9.717109999999999914e+00 1.912560000000000038e+00 4.179780000000000051e+00 1.572650999999999932e+01 -1.512469999999999981e+00 5.954010000000000247e+00 1.539784000000000042e+01 2.690929999999999822e+00 4.069040000000000212e+00 3.137560000000000127e+00 1.123140000000000027e+00 1.741600000000000037e+00 1.863945000000000007e+01 -1.193980000000000041e+00 2.235559999999999992e+00 2.367340000000000000e+00 -1.266639999999999988e+00 1.970069999999999988e+00 9.202349999999999142e+00
-1.259660000000000002e+00 6.366679999999999673e+00 5.108000000000000040e-02 -1.332430000000000003e+00 1.985579999999999901e+00 6.578289999999999971e+00 4.494510000000000005e+00 4.241719999999999935e+00 9.255929999999999325e+00 -1.468720000000000026e+00 1.565949999999999953e+00 1.906234999999999857e+01 4.442730000000000068e+00 3.942550000000000221e+00 1.638178999999999874e+01 1.164299999999999891e+00 1.988350000000000062e+00 3.304370000000000029e+00 2.060849999999999849e+00 4.088759999999999728e+00 1.310981999999999914e+01 4.599660000000000082e+00 -1.572399999999999909e-01 9.864309999999999690e+00 1.993500000000000050e+00 -1.892000000000000071e-01 1.252267999999999937e+01 7.676199999999999690e-01 1.734820000000000029e+00 1.574389000000000038e+01 1.261190000000000033e+00 6.282779999999999809e+00 2.716260000000000119e+00 2.372640000000000082e+00 4.204439999999999955e+00 5.934459999999999624e+00 4.639940000000000175e+00 -2.350000000000000092e-03 1.249052000000000007e+01 1.915389999999999926e+00 4.088390000000000413e+00 8.823470000000000368e+00 5.458730000000000082e+00 1.518040000000000056e+00 1.618922999999999845e+01 4.462889999999999802e+00 3.866159999999999819e+00 1.217361000000000004e+01 1.220569999999999933e+00 1.781050000000000022e+00 5.915440000000000254e+00 -2.336310000000000109e+00 4.425500000000000433e+00 6.380410000000000359e+00 4.285260000000000069e+00 3.836170000000000080e+00 1.900518999999999892e+01 4.653240000000000265e+00 1.737000000000000002e-02 5.588250000000000384e+00 -1.404420000000000002e+00 6.094149999999999956e+00 2.667219999999999924e+00 5.404700000000000060e-01 1.998520000000000074e+00 1.296091999999999977e+01 9.896500000000000297e-01 5.598939999999999806e+00 1.952422999999999931e+01 2.017659999999999787e+00 1.932899999999999896e-01 9.719070000000000320e+00 1.903350000000000097e+00 4.180139999999999745e+00 1.573284999999999911e+01 -1.511190000000000033e+00 5.946839999999999904e+00 1.539822000000000024e+01 2.697140000000000093e+00 4.066329999999999778e+00 3.138100000000000112e+00 1.121739999999999959e+00 1.741139999999999910e+00 1.864010999999999996e+01 -1.191670000000000007e+00 2.241979999999999862e+00 2.366379999999999928e+00 -1.258760000000000101e+00 1.964539999999999953e+00 9.205019999999999314e+00
-1.259800000000000031e+00 6.367090000000000138e+00 4.780999999999999833e-02 -1.329369999999999941e+00 1.984250000000000069e+00 6.580129999999999590e+00 4.495910000000000295e+00 4.238489999999999647e+00 9.255110000000000170e+00 -1.467149999999999954e+00 1.562850000000000072e+00 1.906131999999999849e+01 4.446069999999999744e+00 3.947319999999999940e+00 1.638146000000000058e+01 1.163380000000000081e+00 1.988439999999999985e+00 3.299700000000000077e+00 2.059639999999999915e+00 4.092080000000000162e+00 1.310947999999999958e+01 4.597749999999999559e+00 -1.583199999999999885e-01 9.864670000000000272e+00 1.994420000000000082e+00 -1.924500000000000099e-01 1.252008999999999972e+01 7.691200000000000259e-01 1.734029999999999960e+00 1.574507999999999974e+01 1.261560000000000015e+00 6.284029999999999561e+00 2.716530000000000111e+00 2.371840000000000170e+00 4.202519999999999811e+00 5.935229999999999784e+00 4.637959999999999638e+00 -1.729999999999999984e-03 1.249764000000000053e+01 1.912369999999999903e+00 4.081550000000000011e+00 8.819739999999999469e+00 5.459480000000000111e+00 1.521249999999999991e+00 1.618883999999999901e+01 4.460009999999999586e+00 3.869139999999999802e+00 1.217398000000000025e+01 1.217479999999999896e+00 1.786810000000000009e+00 5.915879999999999583e+00 -2.337819999999999787e+00 4.429879999999999818e+00 6.378949999999999676e+00 4.289030000000000342e+00 3.834220000000000184e+00 1.899977000000000160e+01 4.652219999999999800e+00 1.881999999999999992e-02 5.584489999999999732e+00 -1.411040000000000072e+00 6.096639999999999837e+00 2.667050000000000143e+00 5.370599999999999818e-01 1.999079999999999968e+00 1.297128999999999976e+01 9.960999999999999854e-01 5.597879999999999967e+00 1.952135000000000176e+01 2.012399999999999967e+00 1.975399999999999934e-01 9.720980000000000842e+00 1.893979999999999997e+00 4.180519999999999570e+00 1.573944000000000010e+01 -1.509849999999999914e+00 5.939630000000000187e+00 1.539863000000000071e+01 2.703520000000000145e+00 4.063679999999999737e+00 3.138599999999999834e+00 1.120389999999999997e+00 1.740609999999999991e+00 1.864089999999999847e+01 -1.189380000000000104e+00 2.248629999999999907e+00 2.365369999999999973e+00 -1.250739999999999963e+00 1.959039999999999893e+00 9.207819999999999894e+00