-1.095829416800000047e+02
-1.095804342299999945e+02
-1.095710294900000008e+02
-1.095547395499999936e+02
-1.095321170699999982e+02
-1.095034042900000060e+02
-1.094681321799999978e+02
-1.094260248199999950e+02
-1.093779432900000046e+02
-1.093252846799999958e+02
-1.094021591799999982e+02
-1.094048263300000059e+02
-1.094016009099999991e+02
-1.093924363499999970e+02
-1.093777740400000056e+02
-1.093578942200000057e+02
-1.093324963900000029e+02
-1.093013261600000021e+02
-1.092650315700000050e+02
-1.092247251999999946e+02
-1.094580513300000035e+02
-1.094457438299999978e+02
-1.094275937499999998e+02
-1.094039255800000063e+02
-1.093756068699999986e+02
-1.093431785399999967e+02
-1.093064622499999956e+02
-1.092653934800000002e+02
-1.092209705199999945e+02
-1.091747708200000062e+02
-1.092252989200000002e+02
-1.092153385099999952e+02
-1.092007204399999978e+02
-1.091817001200000021e+02
-1.091590064399999989e+02
-1.091329983300000066e+02
-1.091033564600000005e+02
-1.090699910999999958e+02
-1.090337672200000014e+02
-1.089958249999999964e+02
-1.094647441999999984e+02
-1.094647608599999984e+02
-1.094599266400000062e+02
-1.094502362399999953e+02
-1.094360408900000010e+02
-1.094175350299999963e+02
-1.093943825799999985e+02
-1.093664098899999999e+02
-1.093342684699999978e+02
-1.092989196599999957e+02
