9.128051744209401876e-04 2.230447965842058660e-03 -6.247099994865795008e-02 6.618487443196363618e-02 -1.885215406488355630e-02 5.056989473896243009e-03 -2.280980654329474097e-02 1.125200722574701793e-02 -4.136399599711329533e-02 2.279880893654573706e-02 -1.124398190840846141e-02 -4.135700400075258132e-02 -6.619986790042020619e-02 1.885517890069938682e-02 5.062010528390144606e-03 -1.407118117623929257e-02 1.102106621913477233e-02 1.230600279127610185e-02 1.406618283543033254e-02 -1.102205961353168624e-02 1.230599720932841305e-02 -8.848974863895686443e-04 -2.274485900562139753e-03 -6.248300005862975071e-02 1.568139836837059578e-03 -3.444073362433772850e-02 3.788299706820379142e-02 -4.596639197887750043e-03 -1.383016725163749988e-02 4.866999953643080801e-02 -1.561134627830673997e-03 3.443771568547719653e-02 3.788300293060235108e-02 4.597654199157542518e-03 1.383115785988490477e-02 4.867200046350995263e-02 1.211466848060951673e-01 -2.719210083849600210e-02 -1.039720186900383453e-01 9.517542752066279754e-02 8.350325065576699041e-03 1.151839876612989061e-01 7.127909028105364198e-02 -5.384392273785687522e-02 1.359549860170825020e-01 -8.175607356009174931e-02 -1.005963999068244380e-01 -7.532599677284809725e-02 5.769417093625140401e-03 1.037862830462980973e-01 9.172500740165401290e-02 -7.127905485711286127e-02 5.384290128356455235e-02 1.359540139828354366e-01 2.265255347752096957e-03 -1.623189346367790234e-02 -2.697600159017809682e-02 -5.867094595477514996e-02 5.349292816273297502e-03 -2.560099156551595354e-02 -1.211547097744238854e-01 2.719413091833735446e-02 -1.039769813087081246e-01 -1.273845631410333579e-01 3.254277925436591806e-02 -4.588980035878188757e-03 -3.070157925469109775e-02 6.716494681961202723e-03 -1.063519952772636473e-01 3.067856049561300605e-02 -6.710438593931693750e-03 -1.063540047191175869e-01 -5.770395457439766833e-03 -1.037882958100129344e-01 9.172799259832306595e-02 5.867093896225013955e-02 -5.349288775954936376e-03 -2.560200843448340660e-02 1.273845653061309591e-01 -3.254077853307123236e-02 -4.589019963964349053e-03 -9.518135332200407250e-02 -8.325333023682289502e-03 1.151740123414852768e-01 8.176005298104188634e-02 1.005964049571556329e-01 -7.532200322769683210e-02 -2.258240506287477120e-03 1.624488573752861167e-02 -2.697999840975536315e-02
2.425991915707513893e-02 5.255430163630834747e-04 -1.065280032715817393e-01 1.413249176849838418e-01 5.097449502590876459e-03 -1.129501889777395629e-02 -8.023051708250582281e-02 4.540220181447664205e-02 -2.448298546074960738e-02 2.818374014907928243e-02 -4.639223759296306343e-02 -3.910500750961750510e-02 -1.116013139237649332e-01 1.570377254286331459e-02 5.495801647995747496e-02 -6.564074076429643467e-02 -1.617683059639954055e-02 3.861800768773323428e-02 2.446386354635282645e-02 1.335520449707914593e-02 3.666997712928951516e-03 -2.119554597212270491e-02 4.007129072668429853e-02 -4.858899394349689566e-02 7.320171320450576113e-03 -1.629153970342898591e-02 5.011999771479293958e-02 -9.643027379274384664e-03 -1.990355066255326821e-02 4.930899974635197941e-02 -1.212771123037556867e-02 3.528178001413825871e-02 9.498004440227239206e-03 -3.929553195792150760e-02 4.418322704153591213e-02 4.028900885278836885e-02 1.423316024650068679e-01 -3.720732865825883418e-02 -6.603502237343115977e-02 1.567059930332075912e-01 -3.934291252388207039e-02 7.884897549502120628e-02 8.025422870311339774e-02 -7.658729626310543936e-02 1.308169829967641418e-01 -1.120260577068808855e-01 -1.151886834844375457e-01 -6.177799379048055928e-02 -2.626376177626719988e-02 1.025410358596435673e-01 6.504501167799711658e-02 -5.389862249403708228e-02 6.578321243398624341e-02 1.217830125514651474e-01 -1.660110726895558733e-02 4.053387745868971062e-03 -8.229199741303080962e-02 -7.403727441091445538e-02 -7.556555898663035176e-02 -4.570199585183383484e-02 -1.184420739733551414e-01 1.936747746122195746e-02 -3.446598229674185943e-02 -1.223517755887490732e-01 5.501136928654649927e-03 2.560017143022986184e-03 -3.786850983837143636e-02 2.138976633883458295e-02 -1.087139931406772703e-01 1.528864052786575722e-02 -4.893128667166691745e-03 -1.335200024739973401e-01 2.271690872919134366e-02 -9.953898105735968505e-02 8.776098904326558314e-02 6.838799540007607647e-02 2.568514957256816736e-02 -4.899700731263055553e-02 1.617354414190853296e-01 7.723563743770498445e-03 2.709597852208938881e-02 -9.108173731187403643e-02 -2.117330640140823329e-03 1.080640122714823653e-01 1.030734566572800853e-01 1.101729869285744262e-01 -4.737000538268884564e-02 1.529645681474601192e-02 -1.203116219181608361e-02 -9.747003038310058862e-03
4.738286570100878198e-02 -1.276978770905182583e-03 -1.524880065715950861e-01 2.158356796186657045e-01 3.063813094951716234e-02 -2.722802705795852526e-02 -1.371317002193235546e-01 8.103051046320640383e-02 -6.268974878699746719e-03 3.331496407498241163e-02 -8.195406021983536737e-02 -3.704301101646878536e-02 -1.569416797760266324e-01 1.201426109811791661e-02 1.036460223807230963e-01 -1.177162892170186964e-01 -4.453786422581229587e-02 6.464901256151028841e-02 3.455306273443894960e-02 3.745099544701849942e-02 -4.734001763553290741e-03 -4.290588150697689090e-02 8.494146334561568368e-02 -3.336198743802124000e-02 1.306087966303173982e-02 2.253674161061834224e-03 6.220999839417749172e-02 -1.455862426642851558e-02 -2.609915781399160112e-02 5.005199992876727816e-02 -2.255773238622617305e-02 3.586561052832971941e-02 -1.852399408933091962e-02 -8.229324580732330641e-02 7.305576355329616856e-02 3.102801700303042462e-02 1.631604215802983093e-01 -4.669494714687284082e-02 -2.689402596656132946e-02 2.185257618305665450e-01 -9.042764925960139477e-02 4.081096302163196576e-02 8.910897757117260121e-02 -9.955846433748949398e-02 1.255429799749117337e-01 -1.420770729150503120e-01 -1.297993413724585210e-01 -4.802299083946611619e-02 -5.713988072745436464e-02 1.007448101818626124e-01 3.824301575285034976e-02 -3.581495362061967030e-02 7.786132181145051512e-02 1.072470110349309502e-01 -3.603108096394984361e-02 2.515163338489630196e-02 -1.362269930947646590e-01 -9.077489661300787438e-02 -1.572360679376528791e-01 -6.678100001050855938e-02 -1.150319123135623151e-01 1.126263116256479187e-02 3.752801659801556500e-02 -1.170243679268424541e-01 -2.176300929421453104e-02 9.667014264132287038e-03 -4.518237698048796491e-02 3.610028921138406371e-02 -1.111969909810850005e-01 -3.051561640957477358e-04 -3.003470108405761202e-03 -1.613290001953257835e-01 5.113959239776834365e-02 -9.506755549362515267e-02 8.332998551455901570e-02 7.840514877422846696e-02 5.736107589646059768e-02 -7.213000618114202844e-02 1.969084099711502223e-01 4.979650355742713114e-02 5.805197703858642339e-02 -8.674294051911722592e-02 4.196263108878533349e-03 1.005990121771479090e-01 1.239371141028904888e-01 1.193133369565407137e-01 -1.904900751068367912e-02 3.365144040684987098e-02 -4.131057953501079266e-02 8.272992144670482037e-03
7.010127076910054045e-02 -2.810808615425901789e-03 -1.995110097951606765e-01 2.888566915421347803e-01 5.691135980214361012e-02 -4.266403495689285313e-02 -1.926038050899167020e-01 1.172883773000659019e-01 1.282703555786629188e-02 3.894416665766367580e-02 -1.175287339620024046e-01 -3.582801459234070951e-02 -2.017996824847043125e-01 7.951924791316964183e-03 1.500590281861966802e-01 -1.694237236058952767e-01 -7.341752781682735207e-02 9.057201734409246752e-02 4.414210040041852134e-02 6.086764028427234935e-02 -1.283900122532109604e-02 -6.562028603058903120e-02 1.321123555203470024e-01 -1.815398061387989148e-02 1.895823915351486921e-02 2.059461993689596510e-02 7.476899903605065123e-02 -1.936766912934190579e-02 -3.255694747334332562e-02 5.079000007594310084e-02 -3.264687880420767685e-02 3.637585828512231167e-02 -4.643599267124667168e-02 -1.245688118614020623e-01 1.014290649602431205e-01 2.224102501525957593e-02 1.834424655007253491e-01 -5.546563009963310226e-02 1.356397057155010744e-02 2.798646820179083727e-01 -1.449335689149511275e-01 7.089503439504527211e-04 9.759133382363668896e-02 -1.227589962001700147e-01 1.199379769858160971e-01 -1.715271539268257150e-01 -1.444490264842535343e-01 -3.419498797359730308e-02 -8.654597942853523018e-02 9.778907017411417324e-02 1.149801953545623832e-02 -1.657154300021904114e-02 8.978744877482625064e-02 9.152200934802429133e-02 -5.610736644410403012e-02 4.723798502449410436e-02 -1.883479886102654710e-01 -1.088755390941214540e-01 -2.389172471396006081e-01 -8.838100398388477885e-02 -1.108203172124334890e-01 2.825414304175644358e-03 1.122590153570989652e-01 -1.113560940997025683e-01 -4.910573825785297802e-02 1.663401133249054267e-02 -5.224289569796805588e-02 5.042937847385783878e-02 -1.135149888861891054e-01 -1.651253326404686361e-02 -8.677623915878256459e-04 -1.896509978134454377e-01 7.923708151387869048e-02 -9.012457334310265689e-02 7.821298206747173687e-02 8.855763184444789826e-02 8.922977119013000835e-02 -9.513900505292388621e-02 2.323433470583592120e-01 9.360599818485573764e-02 8.873897565633513673e-02 -8.169752609096811446e-02 1.087064963830567180e-02 9.255501201478388840e-02 1.438663337524260788e-01 1.281982837345051196e-01 1.022099046877918312e-02 5.299150318045642294e-02 -7.171468231455534192e-02 2.701698710437711384e-02
9.261552039164747119e-02 -4.435289535594856038e-03 -2.480120129979993260e-01 3.599641935022022121e-01 8.405786043320170875e-02 -5.672704252560226840e-02 -2.470130431493986478e-01 1.546374289824662962e-01 3.293504593538637559e-02 4.475333481884263831e-02 -1.537087161734395080e-01 -3.494701824055351791e-02 -2.455592066030027054e-01 3.583710613463810500e-03 1.950430338175214162e-01 -2.205511503765517634e-01 -1.028781835126431343e-01 1.153260220016218696e-01 5.310061610115592717e-02 8.339436150595838648e-02 -2.062800067120382566e-02 -8.916739020381810044e-02 1.806296728582598154e-01 -1.657973569776959423e-03 2.478263969249620141e-02 3.895969049765811432e-02 8.671799968979104767e-02 -2.418056012526070137e-02 -3.892473044393515019e-02 5.177900023074644142e-02 -4.243244275239990704e-02 3.664158681408175022e-02 -7.461299131391539718e-02 -1.659732832760847099e-01 1.286868758454619843e-01 1.343203282050777457e-02 2.027397670908979155e-01 -6.349962880715906421e-02 5.360796730227222751e-02 3.396041260932742278e-01 -2.008867568228424605e-01 -3.952006222950123909e-02 1.059057552138878006e-01 -1.453362401553567329e-01 1.147059740688363277e-01 -1.998105291061666178e-01 -1.586867051131032880e-01 -2.087098523454839621e-02 -1.139266415706460811e-01 9.450186765162561786e-02 -1.425597698469561504e-02 2.526941479207668335e-03 1.011718226376300545e-01 7.612700763816075689e-02 -7.601046372349642977e-02 6.943404056505804445e-02 -2.373269841407607827e-01 -1.274528479678010418e-01 -3.180626078853194816e-01 -1.099240076920692394e-01 -1.061937073972725049e-01 -5.603511849846134693e-03 1.865260140601602556e-01 -1.056621299134478803e-01 -7.545950964700952335e-02 2.330200847537689662e-02 -5.925906742428267010e-02 6.437639139792375453e-02 -1.159769868274980187e-01 -3.222019137946780659e-02 1.103090927204398476e-03 -2.177449955128172021e-01 1.061754064818557497e-01 -8.527661003152774144e-02 7.287397877118720335e-02 9.860493927480414034e-02 1.204106451471341765e-01 -1.170180039646170067e-01 2.673472127444462276e-01 1.373742296700979637e-01 1.175419743296964442e-01 -7.675935761755930953e-02 1.740121926938843072e-02 8.464601185571771214e-02 1.627044797775906160e-01 1.364560945556143323e-01 3.859798854775795679e-02 7.232380353718662058e-02 -1.019797716303119106e-01 4.574498207611261275e-02
1.146175346438753767e-01 -6.196894970599300251e-03 -2.982920161417053073e-01 4.280689682226324622e-01 1.119514945201353362e-01 -6.989904962529155941e-02 -3.000076918338436260e-01 1.929150640292202901e-01 5.413605619299731442e-02 5.024298034527664714e-02 -1.901941526326263177e-01 -3.471502186923394739e-02 -2.883416879948176859e-01 -7.601733961799654084e-04 2.379320393173373072e-01 -2.709544738533231079e-01 -1.328640776612154406e-01 1.399780265188196871e-01 6.172592566618244347e-02 1.052156511676614614e-01 -2.757600012724645624e-02 -1.129510413389857582e-01 2.311673974354284677e-01 1.508003366605675973e-02 3.036029701716778592e-02 5.747518300107912204e-02 9.897500038909733122e-02 -2.869975922805061141e-02 -4.547301566186957855e-02 5.263800033119882260e-02 -5.203694520724493067e-02 3.635800497771474876e-02 -1.017739900246554113e-01 -2.062126008019466439e-01 1.548636936685489629e-01 3.762040381339178032e-03 2.210964461534448700e-01 -7.072701864422231699e-02 9.473096422509738601e-02 3.981712541203925038e-01 -2.593639444759133217e-01 -8.139207484202101717e-02 1.136413244153439001e-01 -1.678264945449019774e-01 1.091379712377710531e-01 -2.270452545810752454e-01 -1.725451756062868769e-01 -7.583982608785067026e-03 -1.396834409405774136e-01 8.996288770685020864e-02 -3.997297382538440857e-02 2.255563815156146415e-02 1.120946059711019349e-01 5.939100576483971605e-02 -9.626324750369438799e-02 9.239869475049859726e-02 -2.841529795628521260e-01 -1.468907386562086081e-01 -3.957924956436471020e-01 -1.313310111710367378e-01 -1.005865653828935530e-01 -1.430711453440181892e-02 2.626650126076413017e-01 -9.941166060582470876e-02 -1.015182318150867624e-01 2.989200556554584901e-02 -6.592421559743413817e-02 7.775180346468357762e-02 -1.180509848618478963e-01 -4.847937354417545391e-02 3.352887354443357185e-03 -2.460259931148591206e-01 1.325354466498007699e-01 -8.000965759702899360e-02 6.665397558693698932e-02 1.084185291861990696e-01 1.511719179618992714e-01 -1.386310028775024628e-01 3.018107764352588873e-01 1.821363861757607228e-01 1.459619731552719013e-01 -7.100951184113744874e-02 2.432740216053621077e-02 7.614701161702208676e-02 1.800749563030277500e-01 1.443234133695414367e-01 6.775298679635541332e-02 9.240103290213463882e-02 -1.328721351630839931e-01 6.501597689661960111e-02
1.363719115921181724e-01 -7.746076808043440495e-03 -3.487630192348314395e-01 4.935028596740534956e-01 1.399156938889656587e-01 -8.293105635466554992e-02 -3.527137375221647275e-01 2.321302070712364940e-01 7.638706648517361308e-02 5.645427267042137098e-02 -2.268868228418451094e-01 -3.478702561281877409e-02 -3.303610885907657946e-01 -5.642362352758324880e-03 2.791800446704677530e-01 -3.208941759303302610e-01 -1.624867636693030637e-01 1.639810310013640471e-01 6.938696318981066313e-02 1.262935879550154683e-01 -3.497299951025990145e-02 -1.379952189829679043e-01 2.831532786311685701e-01 3.239104118830593571e-02 3.654635704983541511e-02 7.505563421019498249e-02 1.114780009315351622e-01 -3.324690188887198528e-02 -5.198825306686088304e-02 5.347000043807508679e-02 -6.120007233037258465e-02 3.629366907718411389e-02 -1.293629887783712962e-01 -2.457668781465015828e-01 1.804783397305183557e-01 -5.404952195740360746e-03 2.389941480942490148e-01 -7.735562315024666069e-02 1.364309612578508690e-01 4.563541778772076674e-01 -3.203004789769949290e-01 -1.238760875961357755e-01 1.212853911815835184e-01 -1.900255921343336207e-01 1.038739684421758624e-01 -2.536065964790928384e-01 -1.861797967372634255e-01 5.570019942681814391e-03 -1.642087308731833839e-01 8.513580234555095938e-02 -6.510997085698715103e-02 4.266422705728845077e-02 1.229542526396868035e-01 4.288600387562599425e-02 -1.168332699455317536e-01 1.158088916756639941e-01 -3.290749749064623697e-01 -1.668357878074623879e-01 -4.724445149333295069e-01 -1.531860144956921355e-01 -9.466995186477097923e-02 -2.332024669662273453e-02 3.396300110884351575e-01 -9.314414528896741707e-02 -1.269649822086839630e-01 3.629900270167610299e-02 -7.275261655734235888e-02 9.097949438808775047e-02 -1.205429828855592161e-01 -6.445548610179119287e-02 5.643200039154919016e-03 -2.747349907523610191e-01 1.583796277241455719e-01 -7.465982331043850839e-02 6.040597247967436495e-02 1.183608848615583936e-01 1.817959704147453504e-01 -1.593770018188005178e-01 3.366393598257666486e-01 2.274949197501737186e-01 1.730079719780567016e-01 -6.540279063248817526e-02 3.118082958276105487e-02 6.763501139213129454e-02 1.966836390784849897e-01 1.517270336333845504e-01 9.643398511239723025e-02 1.128877455567291049e-01 -1.640671990917040579e-01 8.487697163731944272e-02
1.581791976112750242e-01 -9.348349007915424114e-03 -4.011500223393729136e-01 5.573777908535985093e-01 1.684895588244607612e-01 -9.642406282303454812e-02 -4.053371765075413635e-01 2.728702110216731924e-01 1.002510768863940777e-01 6.303435077613506188e-02 -2.642901243692501456e-01 -3.569102946284172240e-02 -3.721628093143215521e-01 -1.071192354418085482e-02 3.191060499790868143e-01 -3.710324707741053385e-01 -1.924561107681418692e-01 1.883720354836759259e-01 7.639219322658787059e-02 1.468996449715740393e-01 -4.216499884094816047e-02 -1.642106807332283647e-01 3.378991658256817465e-01 5.027104908829860275e-02 4.299923897995479305e-02 9.253162917467630533e-02 1.243360014292921034e-01 -3.772239335513078579e-02 -5.870761323111964997e-02 5.420000051905948107e-02 -7.034728501891812646e-02 3.617930594868326577e-02 -1.575399875382078041e-01 -2.849256944982789808e-01 2.057773094043439666e-01 -1.470594485173400481e-02 2.563800116109171134e-01 -8.330435195291963080e-02 1.799639584141503601e-01 5.147022503631480950e-01 -3.846603006037848105e-01 -1.683751006429305419e-01 1.286119866236482279e-01 -2.125001474718023475e-01 9.836096566819978182e-02 -2.797056467451816686e-01 -1.996442078026737788e-01 1.892902244444743046e-02 -1.877688050009412579e-01 7.926406569404083335e-02 -9.055396810283494746e-02 6.373149646299176851e-02 1.336262605192082564e-01 2.505600184068378089e-02 -1.380883170481572164e-01 1.403752610743805584e-01 -3.728429700652904910e-01 -1.874449830986671117e-01 -5.485963982909316528e-01 -1.751920176901841097e-01 -8.781320250961256735e-02 -3.283998673834172266e-02 4.193780094008641157e-01 -8.622854202501792353e-02 -1.523608402751813751e-01 4.280699975331588719e-02 -7.946253216647311546e-02 1.039059823481156136e-01 -1.229879809492184228e-01 -8.102908341664911973e-02 8.235534478168347883e-03 -3.042739882844351929e-01 1.841604497379973615e-01 -6.893488011218201761e-02 5.328296941066271164e-02 1.282233004870524384e-01 2.124551595499794554e-01 -1.800620007464090733e-01 3.715864111971583506e-01 2.742972529396973114e-01 2.000529708985895327e-01 -5.909014755162829424e-02 3.857305125196771461e-02 5.846301111335154566e-02 2.122337611885340147e-01 1.588034626819782857e-01 1.260579835471828114e-01 1.343947185483082007e-01 -1.962810084599741212e-01 1.057089661582998052e-01
1.797441059743588865e-01 -1.117120709587549228e-02 -4.554880254282208107e-01 6.200259953557578640e-01 1.978095217054801069e-01 -1.110240690650044909e-01 -4.572691053646998904e-01 3.150780350169192778e-01 1.259540873090032320e-01 6.935504808643533359e-02 -3.025009836746691549e-01 -3.732303334116574001e-02 -4.127426089358302574e-01 -1.582857324805828081e-02 3.575910551171200269e-01 -4.208948240968248822e-01 -2.230449303900944313e-01 2.124000398794237132e-01 8.286236953924801252e-02 1.668896155684560512e-01 -4.864099814718092496e-02 -1.909335521641887523e-01 3.947459232888632097e-01 6.928805722336217610e-02 4.926589375645654828e-02 1.104599431107661789e-01 1.371470019881726454e-01 -4.207599779000709139e-02 -6.549318183813993000e-02 5.508000057817406814e-02 -7.939982939054623934e-02 3.528577989577427049e-02 -1.860239863724544584e-01 -3.236864499604513168e-01 2.305265979847949953e-01 -2.514193760546144449e-02 2.729221396585332915e-01 -8.851263762287284176e-02 2.247129557441004399e-01 5.721595037920785831e-01 -4.512536027648160752e-01 -2.142401137443125658e-01 1.355708372485812108e-01 -2.348250740097073963e-01 9.263296295625093879e-02 -3.048698745206543381e-01 -2.126282160038572844e-01 3.230102485645738181e-02 -2.101528686948649916e-01 7.222731725109886314e-02 -1.159629656012122756e-01 8.555557151296416807e-02 1.435989739244944718e-01 5.778999647208357161e-03 -1.597530557524185768e-01 1.657073317272622914e-01 -4.149689651077483887e-01 -2.082868757151365435e-01 -6.228158811309587595e-01 -1.966360207004166083e-01 -7.991523046266151009e-02 -4.281550727041992521e-02 5.006730075351339959e-01 -7.871218928714614205e-02 -1.773187245249341903e-01 4.927099675747365765e-02 -8.598614708088092584e-02 1.164231512504631388e-01 -1.250849790706178022e-01 -9.809131599938382406e-02 1.104170445724170918e-02 -3.341889857329052860e-01 2.094669047500607728e-01 -6.283912549912926138e-02 4.531696643569209371e-02 1.377436671872691309e-01 2.425009324039112124e-01 -2.003809996757090761e-01 4.059902889116410729e-01 3.215835152594112012e-01 2.269509699314860018e-01 -5.217187301363383073e-02 4.633423833488653498e-02 4.870501078097812936e-02 2.263594718566015185e-01 1.656403259801065564e-01 1.565089821575888773e-01 1.566148649845403584e-01 -2.289790375568006298e-01 1.269449605436760442e-01
2.003271219199150299e-01 -1.293038690092091977e-02 -5.085440283779527615e-01 6.771524971158404682e-01 2.255529201808242346e-01 -1.252300746773093165e-01 -5.064997782022321315e-01 3.562632404357741200e-01 1.514580972820256388e-01 7.594119776804182653e-02 -3.398622954086183423e-01 -3.965103718870605781e-02 -4.514598270793084289e-01 -2.060640584717183740e-02 3.934160600275268260e-01 -4.681880960882268128e-01 -2.518331385029081160e-01 2.356790440664090491e-01 8.830218179477836160e-02 1.854973452701364767e-01 -5.487999742177183254e-02 -2.171030773723231777e-01 4.506247336155260186e-01 8.731806520648120740e-02 5.560930417579169199e-02 1.270751239370489782e-01 1.499140024329546073e-01 -4.619138038796093138e-02 -7.214915742522452768e-02 5.584300061498188861e-02 -8.796400000614083836e-02 3.461041933007216048e-02 -2.134549852561804795e-01 -3.599785249933167286e-01 2.539166649725599356e-01 -3.513293080357530324e-02 2.882416385726587760e-01 -9.291783233819408960e-02 2.692809533043880044e-01 6.272616103142368837e-01 -5.179308795808426069e-01 -2.595521265306937053e-01 1.419851996773788538e-01 -2.562650686160546365e-01 8.718696038848741670e-02 -3.284485971158161433e-01 -2.247329328989365327e-01 4.526502712132680212e-02 -2.307039690344925287e-01 6.458243486915211939e-02 -1.404549633978936507e-01 1.070908350680317422e-01 1.530971802997658504e-01 -1.369600254426834446e-02 -1.810358476250336357e-01 1.910077492816428801e-01 -4.543639602048633597e-01 -2.285565354860303322e-01 -6.928043359647392263e-01 -2.169070234549349274e-01 -7.144872437438576362e-02 -5.306399984162563088e-02 5.804150055702221866e-01 -7.093850211887640922e-02 -2.009110466138654405e-01 5.557699383424174328e-02 -9.227299814568162839e-02 1.282169144225320800e-01 -1.273369772814327561e-01 -1.148181541717110399e-01 1.407830146697003695e-02 -3.636349832089952883e-01 2.336353511253909943e-01 -5.674742573640679383e-02 3.703796361581258856e-02 1.466733155121800747e-01 2.709567125175151858e-01 -2.194619986498005937e-01 4.390171891572794971e-01 3.677141295776542584e-01 2.525409690612387958e-01 -4.507554917455362103e-02 5.412412113518139806e-02 3.888901042655378004e-02 2.387012210206566065e-01 1.719162377373190942e-01 1.862459809673573385e-01 1.787752268092130670e-01 -2.609659634492839109e-01 1.484079549933272069e-01
-1.124799999999999932e-02 2.550250000000000017e-01 -2.303499999999999992e-01 1.074699999999999961e-01 3.056749999999999745e-01 -6.908100000000000351e-02 1.204550000000000065e-01 -1.710510000000000086e-01 -5.538699999999999873e-02 -6.834500000000000297e-02 5.218300000000000022e-02 -5.796300000000000063e-02 1.508569999999999911e-01 -9.194499999999999895e-02 -1.052379999999999982e-01 1.536359999999999948e-01 -2.109489999999999976e-01 -1.683389999999999886e-01 2.878100000000000103e-02 1.845809999999999951e-01 -1.845050000000000023e-01 9.726500000000000423e-02 -1.254969999999999974e-01 -2.634859999999999980e-01 -7.507099999999999884e-02 1.203980000000000050e-01 1.034759999999999985e-01 8.969199999999999395e-02 -1.059989999999999960e-01 5.820800000000000279e-02 5.902299999999999908e-02 -1.491230000000000055e-01 1.472610000000000030e-01 -1.817830000000000001e-01 1.968620000000000092e-01 4.762899999999999773e-02 3.882260000000000155e-01 -1.167559999999999987e-01 2.077269999999999950e-01 -2.112110000000000098e-01 4.043999999999999678e-02 1.068739999999999968e-01 -1.865360000000000074e-01 3.694999999999999674e-02 5.389200000000000240e-02 -1.333390000000000131e-01 -2.021290000000000031e-01 -8.237500000000000377e-02 1.600599999999999939e-02 3.185700000000000337e-02 3.078560000000000185e-01 2.600660000000000194e-01 -9.785199999999999454e-02 1.977810000000000124e-01 -9.814900000000000013e-02 -2.370639999999999969e-01 5.739600000000000257e-02 -1.454429999999999890e-01 -3.667949999999999822e-01 -1.371829999999999994e-01 -2.671000000000000041e-01 1.404219999999999913e-01 6.988900000000000667e-02 -2.264559999999999906e-01 -2.457360000000000100e-01 -1.606509999999999883e-01 -3.570099999999999663e-02 -6.370900000000000174e-02 -2.887230000000000074e-01 -3.319899999999999934e-02 1.436300000000000077e-01 -1.647270000000000123e-01 -9.442899999999999905e-02 2.868499999999999869e-02 3.010450000000000070e-01 4.611699999999999827e-02 8.487999999999999712e-02 4.687100000000000294e-02 1.614389999999999992e-01 1.935109999999999886e-01 -1.028379999999999989e-01 1.466300000000000103e-01 -1.154160000000000047e-01 2.569870000000000210e-01 -9.913099999999999690e-02 2.547229999999999772e-01 -7.048699999999999410e-02 4.183100000000000013e-02 2.328220000000000012e-01 1.795440000000000091e-01
1.948499999999999885e-02 2.398500000000000076e-01 -2.104749999999999954e-01 6.680800000000000627e-02 3.316049999999999831e-01 -7.307600000000000207e-02 1.097940000000000027e-01 -1.622989999999999988e-01 -6.436500000000000554e-02 -7.753999999999999782e-02 6.868399999999999506e-02 -6.415400000000000269e-02 7.523799999999999932e-02 -1.356829999999999981e-01 -1.214350000000000013e-01 1.792100000000000082e-01 -1.861629999999999951e-01 -1.412670000000000037e-01 1.531000000000000026e-03 1.594129999999999991e-01 -1.218989999999999935e-01 9.560000000000000442e-02 -1.361980000000000135e-01 -2.464639999999999886e-01 -1.018339999999999940e-01 1.762340000000000018e-01 1.251319999999999932e-01 9.742000000000000659e-02 -1.200350000000000028e-01 6.612099999999999922e-02 6.338699999999999890e-02 -1.495609999999999995e-01 1.378949999999999898e-01 -1.827840000000000020e-01 2.282420000000000004e-01 3.413700000000000068e-02 3.911100000000000132e-01 -1.030770000000000020e-01 1.509679999999999911e-01 -1.996979999999999866e-01 7.603899999999999548e-02 1.375609999999999888e-01 -1.915739999999999943e-01 2.497999999999999873e-02 5.566600000000000020e-02 -1.335439999999999960e-01 -2.378850000000000131e-01 -9.522500000000000409e-02 3.338100000000000095e-02 -3.719999999999999891e-04 2.786989999999999745e-01 2.788780000000000148e-01 -1.395800000000000096e-01 2.226579999999999948e-01 -1.015670000000000045e-01 -2.269299999999999928e-01 9.675799999999999679e-02 -1.314980000000000038e-01 -3.658959999999999990e-01 -1.247420000000000057e-01 -2.155050000000000021e-01 1.212990000000000040e-01 4.434899999999999953e-02 -1.904109999999999969e-01 -2.667860000000000231e-01 -1.988959999999999895e-01 -8.853500000000000258e-02 -7.070400000000000296e-02 -2.581339999999999746e-01 -6.869000000000000106e-03 1.158529999999999976e-01 -1.673959999999999892e-01 -1.856199999999999864e-02 3.188699999999999868e-02 2.679179999999999895e-01 5.765100000000000086e-02 1.528809999999999891e-01 2.865799999999999945e-02 1.281599999999999961e-01 2.126389999999999947e-01 -1.035910000000000025e-01 1.688270000000000048e-01 -1.120040000000000063e-01 2.520259999999999723e-01 -1.405889999999999918e-01 2.263320000000000054e-01 -7.823800000000000199e-02 1.420899999999999941e-02 2.501599999999999935e-01 1.729459999999999886e-01
4.920200000000000268e-02 2.227040000000000131e-01 -1.895239999999999980e-01 2.495999999999999955e-02 3.541770000000000196e-01 -7.688300000000000689e-02 9.857699999999999796e-02 -1.525690000000000102e-01 -7.315599999999999881e-02 -8.667900000000000604e-02 8.514299999999999646e-02 -7.029599999999999738e-02 -1.134000000000000025e-03 -1.816669999999999952e-01 -1.353659999999999863e-01 2.043949999999999934e-01 -1.591519999999999879e-01 -1.136849999999999944e-01 -2.712300000000000127e-02 1.322850000000000137e-01 -5.841400000000000065e-02 9.326199999999999768e-02 -1.450670000000000015e-01 -2.283830000000000027e-01 -1.271980000000000055e-01 2.308640000000000136e-01 1.463589999999999891e-01 1.039790000000000020e-01 -1.328590000000000049e-01 7.454900000000000415e-02 6.770600000000000229e-02 -1.486260000000000081e-01 1.277850000000000097e-01 -1.819079999999999864e-01 2.591209999999999902e-01 2.045999999999999902e-02 3.925150000000000028e-01 -8.851299999999999446e-02 9.389100000000000223e-02 -1.874099999999999933e-01 1.108610000000000012e-01 1.679759999999999864e-01 -1.958580000000000043e-01 1.240199999999999983e-02 5.734899999999999720e-02 -1.332760000000000056e-01 -2.736970000000000236e-01 -1.081680000000000003e-01 5.145099999999999674e-02 -3.329599999999999921e-02 2.481929999999999970e-01 2.960940000000000238e-01 -1.798970000000000014e-01 2.473750000000000115e-01 -1.045740000000000003e-01 -2.158640000000000003e-01 1.367939999999999989e-01 -1.169130000000000030e-01 -3.628730000000000011e-01 -1.111599999999999949e-01 -1.635290000000000077e-01 1.008300000000000030e-01 1.803400000000000142e-02 -1.541399999999999992e-01 -2.858879999999999755e-01 -2.381399999999999906e-01 -1.409420000000000117e-01 -7.809199999999999475e-02 -2.271509999999999918e-01 1.990899999999999961e-02 8.757199999999999707e-02 -1.697670000000000012e-01 5.631599999999999800e-02 3.543099999999999722e-02 2.339019999999999988e-01 7.125900000000000289e-02 2.226460000000000106e-01 9.209999999999999437e-03 9.466900000000000315e-02 2.301390000000000102e-01 -1.039510000000000017e-01 1.907800000000000051e-01 -1.077479999999999966e-01 2.464270000000000072e-01 -1.819560000000000066e-01 1.979009999999999936e-01 -8.594400000000000650e-02 -1.370799999999999970e-02 2.661560000000000037e-01 1.659849999999999937e-01