5.979576101277924716e-01 1.296363259560057435e-01 5.593886415117687906e-06 1.296363259560057157e-01 4.740548413814660300e-01 -2.318376805101610559e-05 5.593886415117687906e-06 -2.318376805101610559e-05 -7.986719515496131239e-01
5.075173719650460935e-01 2.725740539451741440e-01 3.959031600448874658e-03 2.725740539451741440e-01 8.677493356270705727e-01 6.787940200715050776e-02 3.959031600448874658e-03 6.787940200715050776e-02 -7.317278402817924965e-01
4.002692378684224450e-01 4.140560087271626943e-01 1.101800518555908978e-02 4.140560087271626943e-01 1.253547355634461846e+00 1.362359917110496366e-01 1.101800518555908805e-02 1.362359917110496366e-01 -6.712606708625938889e-01
3.678300324536397103e-01 5.499374315645255695e-01 1.387041398763208880e-02 5.499374315645255695e-01 1.709907451655270139e+00 2.096813289560797156e-01 1.387041398763208706e-02 2.096813289560797433e-01 -5.268023259695090443e-01
3.230256777711964511e-01 6.777571973154009610e-01 1.472349400442340278e-02 6.777571973154009610e-01 2.141852238116829898e+00 2.835603069188308289e-01 1.472349400442340278e-02 2.835603069188307179e-01 -3.892453789354762828e-01
3.679585738885483015e-01 7.958691616590344298e-01 1.208731535707845486e-02 7.958691616590344298e-01 2.647663762432229451e+00 3.603929898648665642e-01 1.208731535707845486e-02 3.603929898648665642e-01 -1.589993593404241956e-01
3.212527054730111575e-01 9.117015814607363211e-01 1.392364986524208433e-02 9.117015814607362101e-01 3.075265126421951489e+00 4.380610335249530141e-01 1.392364986524208606e-02 4.380610335249530141e-01 -4.267515897414755725e-03
3.285977531699043053e-01 1.019801965000048272e+00 1.182373509388720718e-02 1.019801965000048272e+00 3.554051195447539779e+00 5.190905119786070054e-01 1.182373509388720545e-02 5.190905119786070054e-01 2.130593059465305805e-01
3.795564508386854996e-01 1.118213885532312935e+00 7.644547175039637966e-03 1.118213885532313157e+00 4.061713819781786583e+00 6.014025823722290998e-01 7.644547175039637966e-03 6.014025823722289887e-01 4.724164086561549736e-01
4.251570479968840299e-01 1.205466524326890054e+00 3.481045178009665921e-03 1.205466524326889832e+00 4.549390043793684058e+00 6.826854258917064433e-01 3.481045178009666355e-03 6.826854258917064433e-01 7.334245147899571826e-01
6.871448261334042407e+00 4.809101747512243286e+00 2.176410831275739088e+00 4.809101747512243286e+00 1.281458249512040348e+00 2.481569099507724641e+00 2.176410831275739088e+00 2.481569099507724641e+00 7.466866508109560208e+00
6.558257807000846817e+00 5.038238988414546426e+00 2.098970123659849030e+00 5.038238988414546426e+00 1.120736746045945420e+00 2.394123894323187951e+00 2.098970123659849030e+00 2.394123894323187951e+00 7.242324168784053384e+00
6.241313216547447418e+00 5.252037685010590096e+00 2.020422534095797751e+00 5.252037685010590096e+00 9.700081525540763527e-01 2.300831914069592976e+00 2.020422534095797751e+00 2.300831914069592976e+00 7.010371390136941550e+00
5.900771261937544310e+00 5.447697215846639018e+00 1.940209150569963903e+00 5.447697215846639018e+00 8.068395817644986590e-01 2.202571614654480037e+00 1.940209150569963903e+00 2.202571614654480037e+00 6.750988089220602895e+00
5.651260926488915537e+00 5.599476347922461628e+00 1.852671867723628463e+00 5.599476347922461628e+00 7.603988425583041444e-01 2.099154825997750162e+00 1.852671867723628463e+00 2.099154825997750162e+00 6.573070914421389688e+00
5.354037981514869315e+00 5.744033280237419881e+00 1.768933118450013442e+00 5.744033280237419881e+00 6.649398454080628351e-01 1.994722572127979099e+00 1.768933118450013442e+00 1.994722572127979099e+00 6.348131007159581785e+00
5.052331711983486073e+00 5.864456493933879244e+00 1.679815636112275579e+00 5.864456493933879244e+00 5.852803703384908962e-01 1.883462838148718177e+00 1.679815636112275579e+00 1.883462838148718177e+00 6.120840701068600787e+00
4.757361678764514323e+00 5.965103846639096652e+00 1.587030645426939834e+00 5.965103846639096652e+00 5.296737522846122204e-01 1.767879689875684113e+00 1.587030645426939834e+00 1.767879689875684113e+00 5.900411827143790866e+00
4.446957459653643419e+00 6.045752898258762720e+00 1.492004121269765449e+00 6.045752898258762720e+00 4.690422042277131442e-01 1.649148146474397780e+00 1.492004121269765449e+00 1.649148146474397780e+00 5.672744738253414631e+00
4.158090830286382378e+00 6.105610801367702400e+00 1.398432113627852802e+00 6.105610801367702400e+00 4.363819108951038084e-01 1.531563161128802086e+00 1.398432113627852802e+00 1.531563161128802086e+00 5.463945503702251294e+00
1.223870905199222064e-01 3.531244501270105030e+00 -1.582742965270138302e-01 3.531244501270105030e+00 9.292084857942031206e+00 -1.056343401139737903e+00 -1.582742965270138302e-01 -1.056343401139737903e+00 -1.539778758367969402e+00
5.969847953608456437e-02 3.803154500617892619e+00 -1.646989961442240358e-01 3.803154500617892619e+00 9.693983648737132697e+00 -1.130288133920097415e+00 -1.646989961442240358e-01 -1.130288133920097415e+00 -1.518449471951858420e+00
-2.146766571112532565e-02 4.066353402583481547e+00 -1.684914478198540067e-01 4.066353402583481547e+00 1.006131017168517694e+01 -1.204042229727097624e+00 -1.684914478198540067e-01 -1.204042229727097624e+00 -1.521162195086627422e+00
2.549104100517373891e-02 4.304932315587283398e+00 -1.728842115273898083e-01 4.304932315587283398e+00 1.047502840051961215e+01 -1.279325848019393197e+00 -1.728842115273898083e-01 -1.279325848019393197e+00 -1.429051079358205634e+00
8.629775719802655967e-03 4.525298531983285244e+00 -1.749795260163063138e-01 4.525298531983285244e+00 1.079540494873036316e+01 -1.351428650146326627e+00 -1.749795260163063138e-01 -1.351428650146326627e+00 -1.412033342642786904e+00
5.912691857185190664e-02 4.719324422071418113e+00 -1.753142286386521753e-01 4.719324422071418113e+00 1.112181205859276290e+01 -1.420766227481198074e+00 -1.753142286386521753e-01 -1.420766227481198074e+00 -1.348305014083515996e+00
2.133889817053109816e-01 4.889428661800922171e+00 -1.746271938363694043e-01 4.889428661800922171e+00 1.148596917724433020e+01 -1.489907303540844774e+00 -1.746271938363694043e-01 -1.489907303540844774e+00 -1.204928791954578804e+00
2.471285767781409570e-01 5.040004106978268617e+00 -1.709558051448524241e-01 5.040004106978268617e+00 1.169948197667293854e+01 -1.554505246140721830e+00 -1.709558051448524241e-01 -1.554505246140721830e+00 -1.187177698180406749e+00
4.100315099176939371e-01 5.159223075382809220e+00 -1.665743989651977675e-01 5.159223075382809220e+00 1.196133140181336962e+01 -1.616182088223721669e+00 -1.665743989651977675e-01 -1.616182088223721669e+00 -1.074695514105506122e+00
5.580643840078937101e-01 5.250358481215870121e+00 -1.600514199237351998e-01 5.250358481215870121e+00 1.215687712726453285e+01 -1.672034273275476268e+00 -1.600514199237351998e-01 -1.672034273275476268e+00 -9.861515680870991396e-01
-7.508674011824829186e+00 -3.044571474621752039e+00 -1.664222771109970189e+00 -3.044571474621752039e+00 6.896646251978223674e+00 2.761179580794709043e+00 -1.664222771109970189e+00 2.761179580794709043e+00 1.150826526233222680e+01
-7.661275232854797501e+00 -3.258512683693569389e+00 -1.708249597241476181e+00 -3.258512683693569389e+00 7.087023569668347456e+00 2.786722933001778646e+00 -1.708249597241476181e+00 2.786722933001778646e+00 1.143907751743025791e+01
-7.805856325100810622e+00 -3.469204422657860665e+00 -1.751524207705338565e+00 -3.469204422657860665e+00 7.262693534355344482e+00 2.805199750054814700e+00 -1.751524207705338565e+00 2.805199750054814700e+00 1.133690524876254813e+01
-7.889108399057717769e+00 -3.665906779312877450e+00 -1.790728778264413901e+00 -3.665906779312877450e+00 7.430860006364932602e+00 2.818200062296261521e+00 -1.790728778264413901e+00 2.818200062296261521e+00 1.121143220671738128e+01
-7.821904040044548978e+00 -3.838184061438467687e+00 -1.826724309211674280e+00 -3.838184061438467687e+00 7.640279761622979393e+00 2.827692725859482170e+00 -1.826724309211674280e+00 2.827692725859482170e+00 1.112689648383430807e+01
-7.846391853557435070e+00 -4.007050938767394044e+00 -1.858534967427850404e+00 -4.007050938767394044e+00 7.763733663282119224e+00 2.826531257377022932e+00 -1.858534967427850404e+00 2.826531257377022932e+00 1.094700389352235703e+01
-7.757321359684420159e+00 -4.156090616090946988e+00 -1.884783153786023568e+00 -4.156090616090946988e+00 7.904079709416405031e+00 2.820719934876882995e+00 -1.884783153786023568e+00 2.820719934876882995e+00 1.077974433563895218e+01
-7.640686054849350484e+00 -4.291812476651950981e+00 -1.906651371511479010e+00 -4.291812476651950981e+00 8.013095000152747005e+00 2.808450670857095766e+00 -1.906651371511479010e+00 2.808450670857095766e+00 1.057923704854780311e+01
-7.498753333954804035e+00 -4.413435814712679317e+00 -1.922285543659428386e+00 -4.413435814712679317e+00 8.101593928087716279e+00 2.789614397927000500e+00 -1.922285543659428386e+00 2.789614397927000500e+00 1.036705926037076964e+01
-7.320008519328025542e+00 -4.515243399555390447e+00 -1.931479012199430967e+00 -4.515243399555390447e+00 8.157952648524318562e+00 2.763947057690741893e+00 -1.931479012199430967e+00 2.763947057690741893e+00 1.012394132029853999e+01
-6.688401222059264128e+00 2.962595122799498437e+00 -7.674300445847869190e-01 2.962595122799498437e+00 -8.529099119775681359e+00 -4.948211167252782872e-01 -7.674300445847869190e-01 -4.948211167252782872e-01 -3.831538683796399614e+00
-6.780870902485145457e+00 2.815380523271797664e+00 -8.984176994630963531e-01 2.815380523271797664e+00 -8.548291833625423664e+00 -4.044295921776336344e-01 -8.984176994630963531e-01 -4.044295921776336344e-01 -3.759839035451788547e+00
-6.845605381089458596e+00 2.664113858974291205e+00 -1.030809946742676564e+00 2.664113858974291205e+00 -8.552894769166519140e+00 -3.130086084991963724e-01 -1.030809946742676564e+00 -3.130086084991963724e-01 -3.678892528315887311e+00
-6.878213013503809314e+00 2.496976885736327922e+00 -1.163023956888523225e+00 2.496976885736327922e+00 -8.538528166907205730e+00 -2.216828085363849454e-01 -1.163023956888523225e+00 -2.216828085363849454e-01 -3.586027229951621820e+00
-6.879163958736493001e+00 2.329066555169413189e+00 -1.292239159445079277e+00 2.329066555169413189e+00 -8.506590518640518184e+00 -1.323325831556101395e-01 -1.292239159445079277e+00 -1.323325831556101395e-01 -3.479904201846095724e+00
-6.749842358024663369e+00 2.143500501423354354e+00 -1.420734747559943223e+00 2.143500501423354354e+00 -8.356597437434054143e+00 -4.388080380863174784e-02 -1.420734747559943223e+00 -4.388080380863174784e-02 -3.263014417956835889e+00
-6.751003622910272561e+00 1.965801298931310503e+00 -1.548147742299625262e+00 1.965801298931310503e+00 -8.346697876821883355e+00 4.404746920549595240e-02 -1.548147742299625262e+00 4.404746920549595240e-02 -3.195119629572996889e+00
-6.659292213009337047e+00 1.771231552578492296e+00 -1.675168447994303644e+00 1.771231552578492296e+00 -8.250072945826264714e+00 1.332315460902806781e-01 -1.675168447994303644e+00 1.332315460902806781e-01 -3.050948253559373935e+00
-6.510483843275560289e+00 1.570806016370174030e+00 -1.799374962824762392e+00 1.570806016370174030e+00 -8.102706668765495834e+00 2.207020329629726663e-01 -1.799374962824762392e+00 2.207020329629726663e-01 -2.866127242134548947e+00
-6.357099876039585595e+00 1.368755611854458820e+00 -1.917952637318445896e+00 1.368755611854458820e+00 -7.956061219068325308e+00 3.049177113964101071e-01 -1.917952637318445896e+00 3.049177113964101071e-01 -2.694570431253092480e+00
