8.030353177000000287e+00 0.000000000000000000e+00 0.000000000000000000e+00 -3.821205508999999889e+00 7.091799512999999777e+00 0.000000000000000000e+00 -6.968828019999999679e-01 8.813626079999999918e-01 2.905654810300000079e+01
7.338908349000000442e+00 0.000000000000000000e+00 0.000000000000000000e+00 -3.739554926999999918e+00 6.430147051999999697e+00 0.000000000000000000e+00 3.588911149999999828e-01 -1.553847670000000070e-01 2.643976006000000112e+01
8.146028378000000458e+00 0.000000000000000000e+00 0.000000000000000000e+00 -4.073016608999999733e+00 7.054666502999999977e+00 0.000000000000000000e+00 0.000000000000000000e+00 0.000000000000000000e+00 2.874685786699999923e+01
7.433577996000000354e+00 0.000000000000000000e+00 0.000000000000000000e+00 -3.787794029000000062e+00 6.513093959999999960e+00 0.000000000000000000e+00 3.635206990000000027e-01 -1.573891829999999881e-01 2.678082478600000016e+01
8.231232477000000713e+00 0.000000000000000000e+00 0.000000000000000000e+00 -4.142724014999999760e+00 7.192007635999999593e+00 0.000000000000000000e+00 -7.588558659999999900e-01 8.461757920000000377e-01 2.913132015900000127e+01
7.174875575999999811e+00 0.000000000000000000e+00 0.000000000000000000e+00 -3.586832504000000199e+00 6.208713408000000378e+00 0.000000000000000000e+00 -4.318717859999999797e-01 -4.140277099999999794e-02 2.446254542899999862e+01
7.270079552000000334e+00 0.000000000000000000e+00 0.000000000000000000e+00 -3.704483080999999789e+00 6.369841177999999715e+00 0.000000000000000000e+00 3.555252130000000066e-01 -1.539274740000000086e-01 2.619179172600000172e+01
7.106040422999999606e+00 0.000000000000000000e+00 0.000000000000000000e+00 -3.576422411999999884e+00 6.208875417999999868e+00 0.000000000000000000e+00 -6.551218760000000474e-01 7.305053529999999684e-01 2.514913036500000132e+01
8.160886601999999712e+00 0.000000000000000000e+00 0.000000000000000000e+00 -4.156685393000000062e+00 6.781843598000000028e+00 0.000000000000000000e+00 -6.521803819999999474e-01 5.337420590000000464e-01 2.809892390399999940e+01
8.205028483999999622e+00 0.000000000000000000e+00 0.000000000000000000e+00 -4.003032676000000123e+00 7.117089082999999761e+00 0.000000000000000000e+00 -6.655731500000000578e-02 -6.166730689999999626e-01 2.888697116299999834e+01
8.270416839999999326e+00 0.000000000000000000e+00 0.000000000000000000e+00 -4.147532509000000367e+00 7.009556876000000436e+00 0.000000000000000000e+00 -3.216896659999999852e-01 4.337884719999999805e-01 2.877198326799999961e+01
7.270479828000000033e+00 0.000000000000000000e+00 0.000000000000000000e+00 -3.704687042000000208e+00 6.370191888999999996e+00 0.000000000000000000e+00 3.555447880000000005e-01 -1.539359479999999891e-01 2.619323379600000123e+01
8.182739482000000564e+00 0.000000000000000000e+00 0.000000000000000000e+00 -4.096919609000000406e+00 7.337679105000000312e+00 0.000000000000000000e+00 7.177457419999999644e-01 3.537007129999999999e-01 3.002299088999999910e+01
6.966598288000000139e+00 0.000000000000000000e+00 0.000000000000000000e+00 -3.549843615999999979e+00 6.103939347999999931e+00 0.000000000000000000e+00 3.406842139999999852e-01 -1.475019449999999954e-01 2.509844494800000092e+01
6.972374260999999684e+00 0.000000000000000000e+00 0.000000000000000000e+00 -3.552786774999999952e+00 6.109000094999999853e+00 0.000000000000000000e+00 3.409666740000000251e-01 -1.476242379999999910e-01 2.511925394700000069e+01
8.350406746000000879e+00 0.000000000000000000e+00 0.000000000000000000e+00 -4.157088221999999611e+00 7.222742670999999781e+00 0.000000000000000000e+00 5.440854400000000313e-02 2.347344419999999876e-01 2.963412975900000035e+01
8.339281946999999917e+00 0.000000000000000000e+00 0.000000000000000000e+00 -4.182067681999999564e+00 7.067923206999999763e+00 0.000000000000000000e+00 -3.243682720000000130e-01 4.374004899999999751e-01 2.901155834000000056e+01
8.318971044999999620e+00 0.000000000000000000e+00 0.000000000000000000e+00 -4.171881963999999776e+00 7.050708786999999589e+00 0.000000000000000000e+00 -3.235782509999999834e-01 4.363351699999999944e-01 2.894089866899999919e+01
8.202611418000000043e+00 0.000000000000000000e+00 0.000000000000000000e+00 -3.903173777000000122e+00 7.243924941000000395e+00 0.000000000000000000e+00 -7.118315589999999471e-01 9.002686220000000183e-01 2.967983698500000145e+01
7.462736324999999837e+00 0.000000000000000000e+00 0.000000000000000000e+00 -3.802651711999999851e+00 6.538641675000000042e+00 0.000000000000000000e+00 3.649466149999999742e-01 -1.580065439999999988e-01 2.688587300000000013e+01
7.491925881000000231e+00 0.000000000000000000e+00 0.000000000000000000e+00 -3.757126968000000122e+00 6.349750151000000287e+00 0.000000000000000000e+00 -2.914091489999999784e-01 3.929561409999999810e-01 2.606368823600000084e+01
8.281677533999999952e+00 0.000000000000000000e+00 0.000000000000000000e+00 -4.146455739000000307e+00 7.426399474000000112e+00 0.000000000000000000e+00 7.264240539999999857e-01 3.579773319999999814e-01 3.038600088500000140e+01
8.430556141000000281e+00 0.000000000000000000e+00 0.000000000000000000e+00 -4.215280575000000418e+00 7.301074738999999703e+00 0.000000000000000000e+00 0.000000000000000000e+00 0.000000000000000000e+00 2.975093970700000057e+01
7.806059248999999589e+00 0.000000000000000000e+00 0.000000000000000000e+00 -4.060793721999999661e+00 6.904078639999999822e+00 0.000000000000000000e+00 -6.652269920000000170e-01 4.083657640000000200e-01 2.757000613599999994e+01
7.436856949000000050e+00 0.000000000000000000e+00 0.000000000000000000e+00 -3.789464826000000119e+00 6.515966887000000263e+00 0.000000000000000000e+00 3.636810480000000068e-01 -1.574586070000000004e-01 2.679263781399999900e+01
8.039619263000000515e+00 0.000000000000000000e+00 0.000000000000000000e+00 -4.182294085999999744e+00 7.110651080000000235e+00 0.000000000000000000e+00 -6.851308149999999486e-01 4.205842100000000139e-01 2.839491032999999831e+01
7.233775700999999891e+00 0.000000000000000000e+00 0.000000000000000000e+00 -3.763085831000000159e+00 6.397921756999999765e+00 0.000000000000000000e+00 -6.164573819999999982e-01 3.784273530000000219e-01 2.554877360100000061e+01
8.448306336999999999e+00 0.000000000000000000e+00 0.000000000000000000e+00 -4.205825636000000145e+00 7.307421606000000125e+00 0.000000000000000000e+00 5.504642600000000247e-02 2.374864529999999863e-01 2.998155824499999866e+01
7.413842458000000413e+00 0.000000000000000000e+00 0.000000000000000000e+00 -3.777737747000000201e+00 6.495802230999999871e+00 0.000000000000000000e+00 3.625555819999999874e-01 -1.569713279999999933e-01 2.670972389800000002e+01
7.109904882000000370e+00 0.000000000000000000e+00 0.000000000000000000e+00 -3.622865768000000042e+00 6.229500594000000113e+00 0.000000000000000000e+00 3.476922680000000265e-01 -1.505361380000000138e-01 2.561473317100000102e+01
7.091453408999999652e+00 0.000000000000000000e+00 0.000000000000000000e+00 -3.613463784999999984e+00 6.213333926999999868e+00 0.000000000000000000e+00 3.467899449999999884e-01 -1.501454690000000036e-01 2.554825836499999880e+01
7.413537643999999815e+00 0.000000000000000000e+00 0.000000000000000000e+00 -3.777582429000000186e+00 6.495535162000000362e+00 0.000000000000000000e+00 3.625406749999999789e-01 -1.569648740000000042e-01 2.670862575099999958e+01
8.189243199999999945e+00 0.000000000000000000e+00 0.000000000000000000e+00 -4.121591094000000233e+00 7.155319667999999744e+00 0.000000000000000000e+00 -7.549847800000000220e-01 8.418592689999999656e-01 2.898271506700000089e+01
7.870706504000000159e+00 0.000000000000000000e+00 0.000000000000000000e+00 -3.961273714999999918e+00 6.876999458000000232e+00 0.000000000000000000e+00 -7.256181649999999816e-01 8.091134989999999583e-01 2.785537544900000029e+01
7.814969585000000052e+00 0.000000000000000000e+00 0.000000000000000000e+00 -3.933221698000000099e+00 6.828299539999999723e+00 0.000000000000000000e+00 -7.204796530000000532e-01 8.033837099999999731e-01 2.765811579900000083e+01
8.079698899000000267e+00 0.000000000000000000e+00 0.000000000000000000e+00 -3.844686438000000095e+00 7.135377916999999570e+00 0.000000000000000000e+00 -7.011650769999999699e-01 8.867784939999999727e-01 2.923509770400000107e+01
7.414624327000000292e+00 0.000000000000000000e+00 0.000000000000000000e+00 -3.778136149999999915e+00 6.496487282999999557e+00 0.000000000000000000e+00 3.625938169999999849e-01 -1.569878819999999953e-01 2.671254072300000004e+01
8.311767306000000133e+00 0.000000000000000000e+00 0.000000000000000000e+00 -4.168269360000000034e+00 7.044603289000000323e+00 0.000000000000000000e+00 -3.232980509999999752e-01 4.359573299999999763e-01 2.891583755599999961e+01
7.088665884000000084e+00 0.000000000000000000e+00 0.000000000000000000e+00 -3.612043395999999795e+00 6.210891575999999858e+00 0.000000000000000000e+00 3.466536279999999914e-01 -1.500864500000000101e-01 2.553821579699999944e+01
8.139560051000000129e+00 0.000000000000000000e+00 0.000000000000000000e+00 -4.069093359000000021e+00 7.043494354999999985e+00 0.000000000000000000e+00 -4.899382990000000215e-01 -4.696950400000000220e-02 2.775161121600000058e+01
8.155637907999999214e+00 0.000000000000000000e+00 0.000000000000000000e+00 -4.155721051999999638e+00 7.145742740000000204e+00 0.000000000000000000e+00 3.988312489999999988e-01 -1.726771669999999925e-01 2.938217772699999841e+01
7.993396444000000045e+00 0.000000000000000000e+00 0.000000000000000000e+00 -3.996023886000000136e+00 6.917013005000000270e+00 0.000000000000000000e+00 -4.811403850000000038e-01 -4.612606300000000187e-02 2.725327032699999918e+01
8.090533105000000447e+00 0.000000000000000000e+00 0.000000000000000000e+00 -4.050753882000000416e+00 7.254995205000000169e+00 0.000000000000000000e+00 7.096578970000000375e-01 3.497150720000000157e-01 2.968467983400000065e+01
8.176246442000000059e+00 0.000000000000000000e+00 0.000000000000000000e+00 -4.115049913000000004e+00 7.143963800999999947e+00 0.000000000000000000e+00 -7.537865799999999838e-01 8.405231939999999735e-01 2.893671798000000095e+01
8.084609291999999670e+00 0.000000000000000000e+00 0.000000000000000000e+00 -4.205698370000000352e+00 7.150442565999999722e+00 0.000000000000000000e+00 -6.889648339999999704e-01 4.229378160000000220e-01 2.855380937800000041e+01
7.160612247999999624e+00 0.000000000000000000e+00 0.000000000000000000e+00 -3.579702043000000167e+00 6.196370766000000252e+00 0.000000000000000000e+00 -4.310132440000000176e-01 -4.132046500000000067e-02 2.441391499599999904e+01
7.252327763000000260e+00 0.000000000000000000e+00 0.000000000000000000e+00 -3.695437622000000033e+00 6.354287554999999976e+00 0.000000000000000000e+00 3.546571059999999997e-01 -1.535516199999999998e-01 2.612783766000000085e+01
7.465683534000000066e+00 0.000000000000000000e+00 0.000000000000000000e+00 -3.757428373999999849e+00 6.523112198999999833e+00 0.000000000000000000e+00 -6.882781839999999596e-01 7.674768870000000520e-01 2.642195051999999933e+01
8.248636151999999555e+00 0.000000000000000000e+00 0.000000000000000000e+00 -4.124320527000000070e+00 7.143527428999999707e+00 0.000000000000000000e+00 0.000000000000000000e+00 0.000000000000000000e+00 2.910895470099999827e+01
7.392280580999999628e+00 0.000000000000000000e+00 0.000000000000000000e+00 -3.766750850999999845e+00 6.476910314999999585e+00 0.000000000000000000e+00 3.615011510000000206e-01 -1.565148040000000074e-01 2.663204329299999884e+01
7.274954866999999936e+00 0.000000000000000000e+00 0.000000000000000000e+00 -3.706967307000000211e+00 6.374112793000000110e+00 0.000000000000000000e+00 3.557636279999999984e-01 -1.540306969999999942e-01 2.620935593999999824e+01
7.737501721000000110e+00 0.000000000000000000e+00 0.000000000000000000e+00 -3.942658950000000218e+00 6.779383461000000111e+00 0.000000000000000000e+00 3.783833349999999873e-01 -1.638240800000000108e-01 2.787576561099999850e+01
7.435456249999999656e+00 0.000000000000000000e+00 0.000000000000000000e+00 -3.788751097000000012e+00 6.514739633999999668e+00 0.000000000000000000e+00 3.636125499999999788e-01 -1.574289510000000114e-01 2.678759154000000109e+01
8.174889261000000573e+00 0.000000000000000000e+00 0.000000000000000000e+00 -4.069710242000000200e+00 7.070927595999999760e+00 0.000000000000000000e+00 5.326492900000000252e-02 2.298005509999999918e-01 2.901124897200000063e+01
8.317187563999999256e+00 0.000000000000000000e+00 0.000000000000000000e+00 -4.164234837999999606e+00 7.458242258000000291e+00 0.000000000000000000e+00 7.295388019999999862e-01 3.595122609999999996e-01 3.051628944000000132e+01
8.327402926999999622e+00 0.000000000000000000e+00 0.000000000000000000e+00 -4.145636215999999763e+00 7.202845357000000170e+00 0.000000000000000000e+00 5.425865900000000075e-02 2.340877919999999890e-01 2.955249323700000019e+01
8.354582159999999647e+00 0.000000000000000000e+00 0.000000000000000000e+00 -4.159166869999999960e+00 7.226354223999999604e+00 0.000000000000000000e+00 5.443574999999999803e-02 2.348518149999999916e-01 2.964894757000000070e+01
8.321089113999999398e+00 0.000000000000000000e+00 0.000000000000000000e+00 -4.238283320999999937e+00 6.914974768000000438e+00 0.000000000000000000e+00 -6.649830270000000043e-01 5.442196969999999467e-01 2.865052061200000111e+01
8.014380716999999876e+00 0.000000000000000000e+00 0.000000000000000000e+00 -3.813605089999999809e+00 7.077693846999999927e+00 0.000000000000000000e+00 -6.954966940000000264e-01 8.796095680000000083e-01 2.899875431399999925e+01
8.156125658000000556e+00 0.000000000000000000e+00 0.000000000000000000e+00 -3.979174183000000031e+00 7.074670488999999840e+00 0.000000000000000000e+00 -6.616062699999999963e-02 -6.129976329999999862e-01 2.871480179899999996e+01
8.239245521000000849e+00 0.000000000000000000e+00 0.000000000000000000e+00 -4.125210952999999847e+00 7.388349565000000396e+00 0.000000000000000000e+00 7.227021470000000170e-01 3.561431990000000214e-01 3.023031513400000136e+01
7.330102831999999680e+00 0.000000000000000000e+00 0.000000000000000000e+00 -3.735068059000000051e+00 6.422431903999999747e+00 0.000000000000000000e+00 3.584605029999999859e-01 -1.551983309999999949e-01 2.640803657500000057e+01
7.050398325999999827e+00 0.000000000000000000e+00 0.000000000000000000e+00 -3.592544087999999913e+00 6.177362608000000144e+00 0.000000000000000000e+00 3.447822480000000134e-01 -1.492762209999999867e-01 2.540034991899999994e+01
7.406665846000000109e+00 0.000000000000000000e+00 0.000000000000000000e+00 -3.774080891000000104e+00 6.489514283000000106e+00 0.000000000000000000e+00 3.622046270000000012e-01 -1.568193790000000087e-01 2.668386883999999881e+01
8.514141666000000441e+00 0.000000000000000000e+00 0.000000000000000000e+00 -4.238600478999999588e+00 7.364366333999999625e+00 0.000000000000000000e+00 5.547538800000000048e-02 2.393371189999999871e-01 3.021519628600000118e+01
7.472850822999999920e+00 0.000000000000000000e+00 0.000000000000000000e+00 -3.807805572999999999e+00 6.547503715999999585e+00 0.000000000000000000e+00 3.654412389999999733e-01 -1.582206959999999940e-01 2.692231232800000029e+01
8.331641833000000830e+00 0.000000000000000000e+00 0.000000000000000000e+00 -4.178236240000000379e+00 7.061447860000000354e+00 0.000000000000000000e+00 -3.240710989999999736e-01 4.369997609999999866e-01 2.898497911899999835e+01
7.394921082999999840e+00 0.000000000000000000e+00 0.000000000000000000e+00 -3.768096324000000052e+00 6.479223849000000257e+00 0.000000000000000000e+00 3.616302789999999989e-01 -1.565707100000000018e-01 2.664155618299999873e+01
8.603909437000000437e+00 0.000000000000000000e+00 0.000000000000000000e+00 -4.307790241000000186e+00 7.715353352000000164e+00 0.000000000000000000e+00 7.546884980000000409e-01 3.719058769999999958e-01 3.156829020500000027e+01
8.368091637999999222e+00 0.000000000000000000e+00 0.000000000000000000e+00 -4.082587198999999778e+00 7.258531003999999953e+00 0.000000000000000000e+00 -6.788004599999999944e-02 -6.289285599999999699e-01 2.946105821500000133e+01
8.163650949999999185e+00 0.000000000000000000e+00 0.000000000000000000e+00 -4.159804112999999859e+00 7.152763543999999918e+00 0.000000000000000000e+00 3.992231070000000215e-01 -1.728468250000000095e-01 2.941104617599999926e+01
7.392764588000000359e+00 0.000000000000000000e+00 0.000000000000000000e+00 -3.766997477999999955e+00 6.477334388000000054e+00 0.000000000000000000e+00 3.615248209999999962e-01 -1.565250509999999984e-01 2.663378701399999926e+01
8.137389778999999379e+00 0.000000000000000000e+00 0.000000000000000000e+00 -4.095493615999999726e+00 7.110012940999999920e+00 0.000000000000000000e+00 -7.502042970000000199e-01 8.365287049999999835e-01 2.879919958300000005e+01
7.204567573000000280e+00 0.000000000000000000e+00 0.000000000000000000e+00 -3.601675997000000073e+00 6.234407107000000003e+00 0.000000000000000000e+00 -4.336590129999999821e-01 -4.157410999999999746e-02 2.456377949399999849e+01
7.522005275999999796e+00 0.000000000000000000e+00 0.000000000000000000e+00 -3.785774728999999894e+00 6.572323103999999638e+00 0.000000000000000000e+00 -6.934706130000000135e-01 7.732667970000000057e-01 2.662127992799999987e+01
8.223724079000000131e+00 0.000000000000000000e+00 0.000000000000000000e+00 -4.117439704999999783e+00 7.374431076999999668e+00 0.000000000000000000e+00 7.213406900000000066e-01 3.554722810000000011e-01 3.017336597799999964e+01
8.367182031000000464e+00 0.000000000000000000e+00 0.000000000000000000e+00 -4.165439472000000087e+00 7.237252570999999968e+00 0.000000000000000000e+00 5.451784700000000122e-02 2.352060049999999958e-01 2.969366230500000015e+01
7.443170444999999802e+00 0.000000000000000000e+00 0.000000000000000000e+00 -3.792681879999999950e+00 6.521498595999999814e+00 0.000000000000000000e+00 3.639897939999999776e-01 -1.575922810000000007e-01 2.681538333800000018e+01
8.271606063000000120e+00 0.000000000000000000e+00 0.000000000000000000e+00 -4.035514247000000054e+00 7.174838859000000291e+00 0.000000000000000000e+00 -6.709737699999999971e-02 -6.216769030000000029e-01 2.912136700800000000e+01
7.195951495000000087e+00 0.000000000000000000e+00 0.000000000000000000e+00 -3.621674050999999839e+00 6.287434870000000231e+00 0.000000000000000000e+00 -6.634109799999999835e-01 7.397482669999999594e-01 2.546733644500000082e+01
7.441398198999999991e+00 0.000000000000000000e+00 0.000000000000000000e+00 -3.791778827999999990e+00 6.519945803999999789e+00 0.000000000000000000e+00 3.639031269999999929e-01 -1.575547579999999892e-01 2.680899849700000104e+01
8.048531035999999972e+00 0.000000000000000000e+00 0.000000000000000000e+00 -3.829855358000000098e+00 7.107852820999999821e+00 0.000000000000000000e+00 -6.984602960000000360e-01 8.833576990000000517e-01 2.912232177799999988e+01
8.235443699999999367e+00 0.000000000000000000e+00 0.000000000000000000e+00 -4.196386247999999597e+00 7.215666352000000394e+00 0.000000000000000000e+00 4.027339529999999779e-01 -1.743668740000000050e-01 2.966969269499999839e+01
8.257051034999999928e+00 0.000000000000000000e+00 0.000000000000000000e+00 -4.110612889999999631e+00 7.141993996000000067e+00 0.000000000000000000e+00 5.380026899999999779e-02 2.321101630000000082e-01 2.930282670600000117e+01
8.323689356999999234e+00 0.000000000000000000e+00 0.000000000000000000e+00 -4.161142478000000366e+00 7.202828977000000243e+00 0.000000000000000000e+00 -5.010214530000000055e-01 -4.803202599999999850e-02 2.837939513499999933e+01
8.367586105000000885e+00 0.000000000000000000e+00 0.000000000000000000e+00 -4.261966208999999672e+00 6.953614604000000199e+00 0.000000000000000000e+00 -6.686988520000000102e-01 5.472607149999999532e-01 2.881061540099999974e+01
7.183649131000000132e+00 0.000000000000000000e+00 0.000000000000000000e+00 -3.591218540999999931e+00 6.216305524000000027e+00 0.000000000000000000e+00 -4.323998860000000111e-01 -4.145339900000000188e-02 2.449245862800000140e+01
7.240719032000000333e+00 0.000000000000000000e+00 0.000000000000000000e+00 -3.604651692000000018e+00 6.262910527999999921e+00 0.000000000000000000e+00 4.717817900000000064e-02 2.035405210000000020e-01 2.569604258600000080e+01
8.171330684999999150e+00 0.000000000000000000e+00 0.000000000000000000e+00 -4.084975995999999832e+00 7.070986784999999664e+00 0.000000000000000000e+00 -4.918506440000000035e-01 -4.715283700000000300e-02 2.785993233900000021e+01
8.446571391999999179e+00 0.000000000000000000e+00 0.000000000000000000e+00 -4.302196763000000423e+00 7.019252799000000209e+00 0.000000000000000000e+00 -6.750109909999999491e-01 5.524265470000000455e-01 2.908257133900000113e+01
8.224980723999999910e+00 0.000000000000000000e+00 0.000000000000000000e+00 -4.118068880000000043e+00 7.375557943999999644e+00 0.000000000000000000e+00 7.214509159999999977e-01 3.555266000000000259e-01 3.017797668800000110e+01
6.986746235000000027e+00 0.000000000000000000e+00 0.000000000000000000e+00 -3.560110041999999808e+00 6.121592417999999647e+00 0.000000000000000000e+00 3.416695000000000149e-01 -1.479285320000000015e-01 2.517103161400000033e+01
8.163170649999999640e+00 0.000000000000000000e+00 0.000000000000000000e+00 -4.157848754999999841e+00 6.783741682999999689e+00 0.000000000000000000e+00 -6.523629119999999615e-01 5.338914409999999666e-01 2.810678815600000036e+01
7.297210102000000198e+00 0.000000000000000000e+00 0.000000000000000000e+00 -3.718307504999999846e+00 6.393612208999999602e+00 0.000000000000000000e+00 3.568519649999999932e-01 -1.545019019999999965e-01 2.628953449600000170e+01
8.235048219999999475e+00 0.000000000000000000e+00 0.000000000000000000e+00 -4.099659213999999885e+00 7.122962507999999637e+00 0.000000000000000000e+00 5.365690499999999780e-02 2.314916519999999922e-01 2.922474257300000033e+01
7.419318456000000062e+00 0.000000000000000000e+00 0.000000000000000000e+00 -3.780528052999999833e+00 6.500600148000000189e+00 0.000000000000000000e+00 3.628233719999999773e-01 -1.570872690000000016e-01 2.672945218299999937e+01
8.088193428000000296e+00 0.000000000000000000e+00 0.000000000000000000e+00 -4.070733421999999990e+00 7.067027818999999766e+00 0.000000000000000000e+00 -7.456687739999999787e-01 8.314712899999999740e-01 2.862508778699999823e+01
7.192555793000000364e+00 0.000000000000000000e+00 0.000000000000000000e+00 -3.606995819999999853e+00 6.096020295999999838e+00 0.000000000000000000e+00 -2.797647220000000212e-01 3.772539939999999814e-01 2.502220854400000150e+01
7.375882035000000059e+00 0.000000000000000000e+00 0.000000000000000000e+00 -3.758394940000000073e+00 6.462542366000000094e+00 0.000000000000000000e+00 3.606992210000000143e-01 -1.561676019999999887e-01 2.657296452799999997e+01
7.978983750000000263e+00 0.000000000000000000e+00 0.000000000000000000e+00 -3.972182479000000210e+00 6.901477755000000158e+00 0.000000000000000000e+00 5.198847200000000085e-02 2.242935410000000129e-01 2.831601465600000012e+01
8.396605127000000834e+00 0.000000000000000000e+00 0.000000000000000000e+00 -4.276746827000000195e+00 6.977729934000000078e+00 0.000000000000000000e+00 -6.710179179999999910e-01 5.491586299999999810e-01 2.891053141900000156e+01
8.184422751999999690e+00 0.000000000000000000e+00 0.000000000000000000e+00 -3.894518786999999982e+00 7.227862089000000267e+00 0.000000000000000000e+00 -7.102531269999999841e-01 8.982723449999999721e-01 2.961402420800000002e+01
8.300117232999999928e+00 0.000000000000000000e+00 0.000000000000000000e+00 -4.227601453000000120e+00 6.897546756999999751e+00 0.000000000000000000e+00 -6.633070509999999809e-01 5.428480839999999530e-01 2.857831187700000086e+01
8.364050017000000281e+00 0.000000000000000000e+00 0.000000000000000000e+00 -4.351066358999999828e+00 7.397594256999999729e+00 0.000000000000000000e+00 -7.127785800000000505e-01 4.375564630000000066e-01 2.954075839400000092e+01
7.520060598999999790e+00 0.000000000000000000e+00 0.000000000000000000e+00 -3.831861405999999803e+00 6.588867607000000071e+00 0.000000000000000000e+00 3.677499160000000100e-01 -1.592202560000000044e-01 2.709239418499999985e+01
7.865631965000000392e+00 0.000000000000000000e+00 0.000000000000000000e+00 -3.958719733000000129e+00 6.872565598999999636e+00 0.000000000000000000e+00 -7.251503310000000369e-01 8.085918340000000093e-01 2.783741604400000114e+01
7.141559244999999834e+00 0.000000000000000000e+00 0.000000000000000000e+00 -3.594298796999999990e+00 6.239909852000000257e+00 0.000000000000000000e+00 -6.583964359999999738e-01 7.341567100000000456e-01 2.527483574000000033e+01
8.146526944999999742e+00 0.000000000000000000e+00 0.000000000000000000e+00 -4.078788780000000003e+00 7.305206364000000008e+00 0.000000000000000000e+00 7.145693739999999794e-01 3.521354179999999778e-01 2.989012479299999825e+01
8.138589384999999510e+00 0.000000000000000000e+00 0.000000000000000000e+00 -4.145328475000000346e+00 6.763314209999999882e+00 0.000000000000000000e+00 -6.503984910000000230e-01 5.322837660000000470e-01 2.802215187699999888e+01
6.954957075000000266e+00 0.000000000000000000e+00 0.000000000000000000e+00 -3.543911813999999882e+00 6.093739642000000067e+00 0.000000000000000000e+00 3.401149299999999820e-01 -1.472554689999999999e-01 2.505650534700000165e+01
8.295567372000000717e+00 0.000000000000000000e+00 0.000000000000000000e+00 -4.160145252999999599e+00 7.030873103000000235e+00 0.000000000000000000e+00 -3.226679319999999906e-01 4.351076329999999937e-01 2.885947954599999932e+01
8.172377293000000265e+00 0.000000000000000000e+00 0.000000000000000000e+00 -4.091731486999999667e+00 7.328387056000000399e+00 0.000000000000000000e+00 7.168368269999999542e-01 3.532528050000000031e-01 2.998497136099999949e+01
8.320400770999999196e+00 0.000000000000000000e+00 0.000000000000000000e+00 -4.142150327999999604e+00 7.196788792999999629e+00 0.000000000000000000e+00 5.421303499999999970e-02 2.338909580000000099e-01 2.952764381300000096e+01
8.415053799000000723e+00 0.000000000000000000e+00 0.000000000000000000e+00 -4.220066518000000322e+00 7.132143319999999953e+00 0.000000000000000000e+00 -3.273155269999999950e-01 4.413747700000000274e-01 2.927516131300000168e+01
8.126210670000000746e+00 0.000000000000000000e+00 0.000000000000000000e+00 -4.089867244999999762e+00 7.100245237000000209e+00 0.000000000000000000e+00 -7.491736690000000420e-01 8.353794860000000044e-01 2.875963537299999828e+01
7.233768929000000014e+00 0.000000000000000000e+00 0.000000000000000000e+00 -3.685980933000000181e+00 6.338026821999999783e+00 0.000000000000000000e+00 3.537495319999999777e-01 -1.531586779999999925e-01 2.606097606499999841e+01
8.222242152999999831e+00 0.000000000000000000e+00 0.000000000000000000e+00 -4.187936374999999600e+00 6.832831164999999984e+00 0.000000000000000000e+00 -6.570836340000000275e-01 5.377548629999999719e-01 2.831017851900000082e+01
8.328616132000000505e+00 0.000000000000000000e+00 0.000000000000000000e+00 -4.243862440000000014e+00 7.297301441000000111e+00 0.000000000000000000e+00 4.072903199999999835e-01 -1.763395889999999910e-01 3.000536342699999892e+01
8.195595253000000469e+00 0.000000000000000000e+00 0.000000000000000000e+00 -4.124788040000000322e+00 7.160869749999999812e+00 0.000000000000000000e+00 -7.555703900000000361e-01 8.425122640000000107e-01 2.900519574599999828e+01
7.267462854999999777e+00 0.000000000000000000e+00 0.000000000000000000e+00 -3.703149738000000024e+00 6.367548500999999916e+00 0.000000000000000000e+00 3.553972499999999979e-01 -1.538720709999999992e-01 2.618236459699999941e+01
8.097423377000000144e+00 0.000000000000000000e+00 0.000000000000000000e+00 -4.048714094000000152e+00 7.012573343999999764e+00 0.000000000000000000e+00 0.000000000000000000e+00 0.000000000000000000e+00 2.857533365999999830e+01
8.149516294999999744e+00 0.000000000000000000e+00 0.000000000000000000e+00 -4.152601771999999691e+00 7.140379152999999590e+00 0.000000000000000000e+00 3.985318860000000019e-01 -1.725475549999999914e-01 2.936012349499999985e+01
8.376798162000000048e+00 0.000000000000000000e+00 0.000000000000000000e+00 -4.194080568000000397e+00 7.511696660000000136e+00 0.000000000000000000e+00 7.347675219999999507e-01 3.620889420000000247e-01 3.073500451299999980e+01
8.371139553000000788e+00 0.000000000000000000e+00 0.000000000000000000e+00 -4.198043957000000326e+00 7.094923986000000404e+00 0.000000000000000000e+00 -3.256074190000000090e-01 4.390714410000000067e-01 2.912238788000000156e+01
8.233347998999999362e+00 0.000000000000000000e+00 0.000000000000000000e+00 -4.195318378999999709e+00 7.213830157000000298e+00 0.000000000000000000e+00 4.026314679999999924e-01 -1.743225019999999903e-01 2.966214254799999850e+01
8.337240853000000840e+00 0.000000000000000000e+00 0.000000000000000000e+00 -4.181044092999999684e+00 7.066193285999999851e+00 0.000000000000000000e+00 -3.242888809999999733e-01 4.372934330000000092e-01 2.900445757199999974e+01
8.209395970999999292e+00 0.000000000000000000e+00 0.000000000000000000e+00 -4.104700423999999792e+00 7.109544439999999632e+00 0.000000000000000000e+00 0.000000000000000000e+00 0.000000000000000000e+00 2.897047839600000074e+01
8.283266168999999124e+00 0.000000000000000000e+00 0.000000000000000000e+00 -4.147251134000000228e+00 7.427824045999999569e+00 0.000000000000000000e+00 7.265634010000000531e-01 3.580460010000000026e-01 3.039182968900000148e+01
6.974679645000000150e+00 0.000000000000000000e+00 0.000000000000000000e+00 -3.553961487000000030e+00 6.111020007999999670e+00 0.000000000000000000e+00 3.410794129999999980e-01 -1.476730490000000007e-01 2.512755951500000151e+01
8.597387206000000504e+00 0.000000000000000000e+00 0.000000000000000000e+00 -4.304524702000000147e+00 7.709504694999999685e+00 0.000000000000000000e+00 7.541164030000000462e-01 3.716239519999999796e-01 3.154435972399999955e+01
8.413083299000000181e+00 0.000000000000000000e+00 0.000000000000000000e+00 -4.219078331999999598e+00 7.130473230999999856e+00 0.000000000000000000e+00 -3.272388809999999815e-01 4.412714160000000274e-01 2.926830613199999931e+01
8.340239948000000680e+00 0.000000000000000000e+00 0.000000000000000000e+00 -4.152026878000000032e+00 7.213948828000000368e+00 0.000000000000000000e+00 5.434230100000000258e-02 2.344486480000000095e-01 2.959804957600000108e+01