-3.168680000000000163e+00 6.351350000000000051e+00 1.844819999999999904e+00 5.863290000000000113e+00 2.581500000000000128e+00 7.612499999999999822e-01 3.070499999999999896e-01 6.448260000000000325e+00 9.190099999999999936e-01 7.852500000000000036e-01 1.329909999999999926e+00 5.768790000000000084e+00 4.266110000000000291e+00 9.399199999999999777e-01 5.406889999999999752e+00 2.904920000000000169e+00 5.014070000000000249e+00 4.827910000000000146e+00 1.945650000000000102e+00 3.151269999999999794e+00 1.066370000000000040e+00 -1.291789999999999994e+00 4.692949999999999733e+00 4.854429999999999801e+00 5.673510000000000275e+00 1.005360000000000031e+00 2.862383000000000166e+01 3.186129999999999907e+00 5.461680000000000312e+00 2.885153000000000034e+01 1.257959999999999967e+00 1.562170000000000059e+00 2.905265999999999948e+01 -5.147699999999999498e-01 5.246120000000000339e+00 2.865262999999999849e+01 4.825400000000000134e+00 5.625939999999999941e+00 6.546179999999999666e+00 6.466140000000000221e+00 2.122360000000000024e+00 6.753930000000000433e+00 8.880400000000000515e-01 5.338049999999999962e+00 6.491819999999999702e+00 2.772440000000000015e+00 2.027219999999999800e+00 7.038210000000000299e+00 -7.924700000000000077e-01 6.929820000000000313e+00 3.298729999999999940e+00 5.051630000000000287e+00 3.227629999999999999e+00 3.224769999999999914e+00 7.181799999999999962e+00 4.159999999999999809e-01 3.654819999999999958e+00 2.339480000000000004e+00 2.894410000000000149e+00 3.529860000000000220e+00
-6.728199999999999736e-01 1.668549999999999978e+00 2.509589000000000070e+01 -8.160399999999999876e-01 3.969279999999999919e+00 1.367839999999999945e+00 3.185449999999999893e+00 1.432949999999999946e+00 6.513099999999999445e-01 2.657379999999999853e+00 4.727640000000000065e+00 2.538719000000000037e+01 -2.200999999999999832e-02 2.747040000000000148e+00 6.756590000000000096e+00 1.365790000000000060e+00 1.765530000000000044e+00 3.993739999999999846e+00 -2.235700000000000021e+00 5.872069999999999901e+00 6.512660000000000338e+00 3.492010000000000058e+00 1.683850000000000069e+00 6.807629999999999626e+00 4.045169999999999710e+00 2.317959999999999798e+00 2.469238999999999962e+01 6.754470000000000418e+00 9.799999999999999684e-03 2.347738999999999976e+01 9.554999999999999605e-02 4.114410000000000345e+00 2.508809000000000111e+01 -2.307370000000000143e+00 6.179789999999999672e+00 1.282059999999999977e+00 3.251650000000000151e+00 1.180800000000000044e-01 4.542970000000000397e+00 1.768860000000000099e+00 1.315979999999999928e+00 8.425380000000000535e+00 6.908870000000000289e+00 5.776000000000000023e-01 5.441589999999999705e+00 -1.628619999999999957e+00 3.892570000000000086e+00 8.358169999999999433e+00 1.964020000000000099e+00 3.487810000000000077e+00 1.762950000000000017e+00 5.946019999999999861e+00 1.142330000000000068e+00 1.176930000000000032e+00 5.056689999999999685e+00 3.426769999999999872e+00 4.595740000000000158e+00 2.086359999999999992e+00 3.797959999999999781e+00 5.622869999999999813e+00
3.322330000000000005e+00 5.190330000000000332e+00 1.375809999999999977e+00 5.763589999999999769e+00 2.012010000000000076e+00 1.022440000000000015e+00 -4.172500000000000098e-01 5.666719999999999757e+00 8.832900000000000196e-01 1.438360000000000083e+00 1.490410000000000013e+00 9.326299999999999590e-01 6.745849999999999902e+00 6.910800000000000276e-01 5.513799999999999812e+00 4.512599999999999945e+00 4.025229999999999642e+00 5.121749999999999581e+00 2.411449999999999871e+00 5.035699999999999621e-01 5.371209999999999596e+00 1.855700000000000127e-01 4.267940000000000289e+00 5.162010000000000431e+00 1.577979999999999938e+00 6.767109999999999737e+00 2.849913000000000096e+01 3.646329999999999849e+00 2.892459999999999809e+00 2.868193000000000126e+01 -2.847370000000000179e+00 6.302399999999999558e+00 2.850482999999999834e+01 -4.764200000000000101e-01 3.111240000000000006e+00 2.826032999999999973e+01 -3.390120000000000022e+00 6.358629999999999782e+00 6.812249999999999694e+00 -1.576880000000000059e+00 3.303339999999999943e+00 6.829579999999999984e+00 6.416399999999999881e-01 6.425629999999999953e+00 6.713949999999999640e+00 2.502460000000000129e+00 2.917990000000000084e+00 6.458639999999999937e+00 -1.505779999999999896e+00 5.908009999999999984e+00 3.181329999999999991e+00 1.101809999999999956e+00 3.511489999999999778e+00 2.762739999999999974e+00 4.028150000000000119e+00 6.558699999999999974e+00 3.520239999999999814e+00 5.509730000000000238e+00 2.113490000000000091e+00 3.541570000000000107e+00
6.098830000000000418e+00 1.405799999999999939e+00 4.014439999999999564e+00 9.113599999999999479e-01 1.541250000000000009e+00 1.051509999999999945e+00 -6.964000000000000190e-01 3.023719999999999963e+00 2.558162000000000091e+01 8.574899999999999745e-01 6.357920000000000016e+00 6.992300000000000182e-01 5.224610000000000198e+00 3.375849999999999795e+00 6.713569999999999816e+00 2.872349999999999959e+00 4.167460000000000164e+00 2.553012000000000015e+01 1.018420000000000103e+00 1.261609999999999898e+00 7.088289999999999758e+00 1.123839999999999950e+00 5.558559999999999945e+00 6.702829999999999622e+00 -1.993900000000000006e+00 4.279379999999999740e+00 2.395392000000000010e+01 5.142409999999999926e+00 -1.426199999999999968e-01 2.495832000000000050e+01 2.818709999999999827e+00 4.827729999999999855e+00 1.610109999999999930e+00 1.634220000000000006e+00 1.803409999999999958e+00 2.522721999999999909e+01 1.054149999999999920e+00 1.273810000000000109e+00 4.432809999999999917e+00 3.740349999999999842e+00 1.304489999999999927e+00 7.772059999999999746e+00 -1.401999999999999948e-02 3.404189999999999827e+00 8.428309999999999746e+00 3.490180000000000060e+00 5.644890000000000185e+00 7.950319999999999609e+00 -1.476860000000000062e+00 6.107800000000000118e+00 2.027350000000000207e+00 5.918420000000000236e+00 2.464620000000000033e+00 1.444679999999999964e+00 4.875519999999999854e+00 3.661630000000000162e+00 4.040980000000000238e+00 7.252499999999999503e-01 5.509339999999999904e+00 4.357359999999999900e+00
3.327100000000000168e+00 4.580940000000000012e+00 5.506799999999999473e-01 -7.589599999999999680e-01 1.851460000000000106e+00 1.623510000000000009e+00 -1.449289999999999967e+00 5.294059999999999988e+00 1.830009999999999915e+00 1.066929999999999934e+00 1.473600000000000021e+00 2.894942999999999955e+01 5.558370000000000033e+00 7.661900000000000377e-01 6.261040000000000383e+00 2.869880000000000209e+00 4.663780000000000037e+00 5.274469999999999992e+00 5.520199999999999552e-01 8.173000000000000265e-01 4.528929999999999900e+00 -1.873729999999999896e+00 4.040180000000000327e+00 6.070640000000000036e+00 -1.065330000000000110e+00 7.726759999999999629e+00 2.872953000000000046e+01 5.408399999999999874e-01 4.309000000000000163e+00 2.866882999999999981e+01 2.596130000000000049e+00 7.981010000000000382e+00 2.878982999999999848e+01 5.775420000000000442e+00 3.598250000000000171e+00 1.801800000000000068e-01 -3.003620000000000179e+00 6.385500000000000398e+00 6.265150000000000219e+00 -5.119399999999999507e-01 1.995719999999999938e+00 7.051989999999999981e+00 1.315800000000000081e+00 5.561219999999999608e+00 7.126920000000000144e+00 3.687710000000000043e+00 2.338459999999999983e+00 6.518510000000000026e+00 5.681680000000000064e+00 4.754200000000000093e-01 3.533589999999999787e+00 4.195829999999999949e+00 4.543739999999999668e+00 3.086969999999999992e+00 2.266770000000000174e+00 6.794700000000000184e-01 2.731669999999999821e+00 1.458299999999999874e-01 4.459819999999999673e+00 3.663349999999999884e+00
-9.305400000000000338e-01 4.282799999999999940e+00 4.257199999999999873e-01 6.370560000000000223e+00 4.214800000000000213e-01 3.275199999999999778e-01 1.360379999999999923e+00 3.920059999999999878e+00 2.278665000000000163e+01 2.623749999999999805e+00 8.810200000000000253e-01 2.263674999999999926e+01 -2.785099999999999909e+00 6.006610000000000227e+00 6.717520000000000380e+00 1.349599999999999966e-01 3.975530000000000008e+00 7.102149999999999963e+00 4.830729999999999968e+00 1.655310000000000059e+00 6.431440000000000268e+00 3.880189999999999806e+00 3.033650000000000180e+00 4.424769999999999648e+00 5.171490000000000364e+00 3.943400000000000238e-01 2.233595000000000041e+01 1.854200000000000070e+00 2.537690000000000001e+00 2.091884999999999906e+01 1.651599999999999957e+00 5.981800000000000450e-01 4.465600000000000125e-01 -1.473219999999999974e+00 4.002189999999999692e+00 2.224984999999999857e+01 2.003140000000000143e+00 5.872370000000000090e+00 7.976750000000000007e+00 3.211739999999999817e+00 4.482999999999999763e-01 4.900420000000000442e+00 -2.366880000000000095e+00 3.911880000000000024e+00 8.066760000000000375e+00 1.711889999999999912e+00 1.965759999999999952e+00 7.890240000000000364e+00 4.656550000000000189e+00 2.328829999999999956e+00 1.181669999999999998e+00 -4.972799999999999998e-01 3.057189999999999852e+00 4.882970000000000255e+00 3.557580000000000187e+00 5.436259999999999870e+00 4.147149999999999892e+00 1.943380000000000107e+00 4.294520000000000337e+00 9.035300000000000553e-01
5.356519999999999726e+00 1.158169999999999922e+00 3.137000000000000011e+00 -1.968469999999999942e+00 5.682030000000000136e+00 3.589280000000000026e+00 1.267819999999999947e+00 2.208689999999999820e+00 2.612559999999999860e+01 2.171479999999999855e+00 4.973659999999999748e+00 2.417150000000000176e+01 3.817099999999999937e+00 4.294019999999999726e+00 6.938349999999999795e+00 -2.321880000000000166e+00 4.503639999999999866e+00 2.592709999999999937e+01 -2.045599999999999918e-01 2.149779999999999802e+00 6.544889999999999652e+00 3.619489999999999874e+00 -2.120000000000000009e-02 7.409410000000000274e+00 2.570129999999999804e+00 2.410820000000000185e+00 2.345639999999999858e+01 -2.368869999999999809e+00 6.030669999999999753e+00 2.392930000000000135e+01 1.859879999999999978e+00 4.622679999999999900e+00 3.825299999999999812e-01 5.035110000000000419e+00 9.128699999999999593e-01 2.368570000000000064e+01 4.519199999999999884e-01 1.591900000000000093e+00 4.138749999999999929e+00 2.252860000000000085e+00 2.224029999999999951e+00 7.889389999999999681e+00 -1.391629999999999923e+00 4.001879999999999882e+00 8.548180000000000334e+00 6.272350000000000314e+00 3.157699999999999951e-01 8.066860000000000142e+00 2.063800000000000079e+00 2.391699999999999937e-01 1.214509999999999978e+00 5.755200000000000315e+00 2.572499999999999787e+00 8.820299999999999807e-01 3.715320000000000178e+00 3.760099999999999998e+00 4.291900000000000048e+00 4.706400000000000028e-01 5.661089999999999733e+00 4.294880000000000031e+00
-1.739039999999999919e+00 5.832679999999999865e+00 2.248163999999999874e+01 2.971519999999999939e+00 3.203110000000000124e+00 2.219973999999999847e+01 -2.556779999999999831e+00 4.977750000000000341e+00 1.818019999999999969e+00 2.172460000000000058e+00 1.573630000000000084e+00 4.088200000000000167e-01 1.584880000000000067e+00 4.726370000000000182e+00 4.487510000000000332e+00 3.060309999999999864e+00 4.999469999999999636e+00 9.129739999999999966e+00 1.574160000000000004e+00 1.073269999999999946e+00 4.209550000000000125e+00 5.796949999999999825e+00 1.638589999999999991e+00 8.636240000000000805e+00 7.449999999999999956e-01 1.923550000000000093e+00 2.278564000000000078e+01 -3.463800000000000212e-01 5.449410000000000309e+00 2.938899999999999846e-01 7.219700000000000006e-01 6.700759999999999827e+00 2.229573999999999856e+01 3.772419999999999884e+00 4.816510000000000069e+00 2.069513999999999854e+01 3.511449999999999960e+00 2.540869999999999962e+00 8.958640000000000825e+00 1.090209999999999901e+00 1.153599999999999959e+00 8.952840000000000131e+00 9.086300000000000487e-01 5.447549999999999670e+00 8.317140000000000200e+00 4.231379999999999697e+00 7.658800000000000052e-01 3.870169999999999888e+00 4.176370000000000360e+00 4.859189999999999898e+00 4.450440000000000396e+00 2.405769999999999964e+00 4.706789999999999807e+00 2.486174000000000106e+01 1.508799999999999863e-01 1.407759999999999900e+00 1.792799999999999949e+00 8.905899999999999928e-01 2.994709999999999983e+00 5.984939999999999927e+00
-3.264380000000000059e+00 6.335600000000000342e+00 5.745000000000000107e-02 6.061189999999999856e+00 3.049850000000000172e+00 1.755599999999999938e-01 2.286080000000000112e+00 3.689360000000000195e+00 1.255039999999999933e+00 4.648220000000000240e+00 2.013600000000000112e-01 1.332140000000000102e+00 6.754199999999999982e+00 2.054969999999999963e+00 4.877320000000000100e+00 -2.747640000000000082e+00 5.413090000000000401e+00 6.964719999999999800e+00 2.566570000000000018e+00 2.102570000000000050e+00 5.021429999999999616e+00 9.061399999999999455e-01 5.798840000000000217e+00 5.639310000000000045e+00 3.398509999999999920e+00 4.869040000000000035e+00 2.679740999999999929e+01 5.593589999999999840e+00 1.114800000000000013e+00 2.747710999999999970e+01 -5.582999999999999768e-02 4.482190000000000119e+00 3.004299999999999748e-01 1.744259999999999922e+00 2.055359999999999854e+00 2.778031000000000006e+01 6.572099999999999609e-01 1.238469999999999960e+00 6.357859999999999623e+00 -8.136299999999999644e-01 3.966540000000000177e+00 7.402009999999999756e+00 4.978640000000000398e+00 1.392560000000000020e+00 6.485850000000000115e+00 2.861509999999999998e+00 4.290879999999999583e+00 6.453400000000000247e+00 4.905879999999999797e+00 2.634999999999999787e+00 2.648969999999999825e+00 3.226830000000000087e+00 5.941370000000000040e+00 2.280800000000000161e+00 7.358799999999999786e-01 3.539429999999999854e+00 3.740009999999999835e+00 -8.185200000000000253e-01 5.746310000000000251e+00 3.708899999999999864e+00
3.510110000000000063e+00 3.253049999999999997e+00 6.542999999999999927e-01 1.342309999999999892e+00 6.795320000000000249e+00 1.891599999999999948e+00 -1.124749999999999917e+00 3.129399999999999959e+00 1.214560000000000084e+00 -2.643130000000000202e+00 6.630139999999999922e+00 1.075879999999999947e+00 5.599059999999999704e+00 2.623289999999999900e+00 5.052880000000000038e+00 3.126520000000000188e+00 5.662020000000000053e+00 5.605690000000000062e+00 1.196390000000000065e+00 1.873820000000000041e+00 5.151699999999999946e+00 -5.048500000000000210e-01 5.802220000000000155e+00 5.057439999999999714e+00 -1.044759999999999911e+00 4.474280000000000257e+00 2.876535000000000153e+01 1.234890000000000043e+00 1.304810000000000025e+00 2.879615000000000080e+01 3.277340000000000142e+00 5.147560000000000358e+00 2.868805000000000049e+01 5.205020000000000202e+00 1.559350000000000014e+00 1.151400000000000062e-01 -2.828939999999999788e+00 6.686460000000000292e+00 6.581269999999999953e+00 -6.367199999999999527e-01 3.506850000000000023e+00 6.435130000000000017e+00 5.247650000000000148e+00 1.565000000000000002e-01 6.668849999999999945e+00 3.306420000000000137e+00 2.952679999999999971e+00 6.602739999999999831e+00 7.122700000000000031e+00 9.817799999999999860e-01 3.337000000000000188e+00 4.597610000000000419e+00 4.050980000000000025e+00 3.067270000000000163e+00 3.019369999999999887e+00 1.210299999999999987e-01 3.025809999999999889e+00 1.875420000000000087e+00 4.569539999999999935e+00 3.276470000000000216e+00
3.557020000000000071e+00 1.857699999999999907e-01 7.616600000000000037e-01 1.654029999999999889e+00 3.470470000000000166e+00 1.228120000000000100e+00 7.994629999999999903e+00 3.814500000000000113e-01 5.502299999999999969e-01 5.599440000000000417e+00 4.171179999999999666e+00 1.464129999999999932e+00 2.527359999999999829e+00 2.872269999999999879e+00 6.756219999999999892e+00 1.521919999999999940e+00 6.748199999999999754e+00 4.951500000000000234e+00 -1.662760000000000016e+00 2.790239999999999831e+00 5.989099999999999646e+00 -2.541040000000000187e+00 6.697910000000000252e+00 4.427220000000000155e+00 -9.955899999999999750e-01 2.925879999999999814e+00 7.129000000000000614e-02 -2.859910000000000174e+00 6.587320000000000064e+00 2.795918999999999954e+01 3.096340000000000092e+00 3.440570000000000128e+00 2.845958999999999861e+01 1.395599999999999952e+00 6.682959999999999567e+00 2.840758999999999901e+01 7.150140000000000384e+00 4.387800000000000034e-01 6.951740000000000030e+00 4.557909999999999684e+00 4.550270000000000259e+00 6.292930000000000135e+00 3.259329999999999838e+00 6.065700000000000536e-01 6.241019999999999790e+00 3.900000000000000133e-01 4.089730000000000310e+00 6.545429999999999637e+00 3.914870000000000072e+00 5.798650000000000304e+00 2.815280000000000005e+00 6.029309999999999725e+00 1.989360000000000017e+00 3.607689999999999841e+00 -4.353799999999999892e-01 5.445700000000000429e+00 2.779679999999999929e+00 2.167629999999999946e+00 2.794680000000000053e+00 3.953539999999999832e+00
2.907179999999999875e+00 6.348830000000000418e+00 8.388799999999999590e-01 -4.760000000000000342e-02 4.778319999999999901e+00 3.254900000000000126e+00 2.209389999999999965e+00 2.820999999999999897e-02 2.330051999999999879e+01 3.415010000000000101e+00 4.210020000000000095e+00 2.286461999999999861e+01 5.321060000000000123e+00 2.436999999999999833e+00 6.835950000000000415e+00 3.107680000000000220e+00 2.103819999999999801e+00 2.885699999999999932e+00 1.903939999999999966e+00 6.177799999999999958e-01 7.503700000000000259e+00 1.662809999999999899e+00 4.584990000000000343e+00 7.663700000000000401e+00 3.163530000000000175e+00 2.215749999999999886e+00 2.442622000000000071e+01 -1.945969999999999978e+00 5.028559999999999697e+00 2.130082000000000164e+01 3.891499999999999959e-01 2.425269999999999815e+00 1.898979999999999890e+00 3.145189999999999930e+00 6.113330000000000375e+00 2.442811999999999983e+01 -1.754829999999999890e+00 6.229759999999999742e+00 4.840290000000000425e+00 4.453909999999999592e+00 8.106999999999999762e-01 8.663729999999999265e+00 2.376800000000000024e-01 2.402499999999999858e+00 8.599030000000000840e+00 4.209780000000000300e+00 4.645920000000000272e+00 8.369669999999999277e+00 4.276519999999999655e+00 4.098090000000000011e+00 1.456190000000000095e+00 2.250000000000000056e-01 6.257810000000000095e+00 1.150009999999999977e+00 5.204900000000000304e+00 2.496809999999999974e+00 4.502659999999999663e+00 2.288609999999999811e+00 4.354079999999999728e+00 4.797259999999999636e+00
4.400199999999999889e+00 4.318050000000000388e+00 9.537400000000000322e-01 6.338799999999999990e+00 1.199729999999999963e+00 1.200609999999999955e+00 3.396700000000000275e-01 4.070540000000000269e+00 9.222000000000000197e-01 2.653150000000000119e+00 5.607100000000000417e-01 1.483540000000000081e+00 4.690529999999999866e+00 1.828379999999999894e+00 4.724179999999999602e+00 2.807409999999999961e+00 6.067169999999999952e+00 4.951769999999999783e+00 5.727700000000000014e-01 2.309810000000000141e+00 6.182419999999999582e+00 -9.963300000000000489e-01 5.816019999999999968e+00 5.535000000000000142e+00 1.213989999999999903e+00 7.153920000000000279e+00 2.996261000000000152e+01 3.248320000000000096e+00 2.967350000000000154e+00 2.986910999999999916e+01 -3.841489999999999849e+00 6.916380000000000194e+00 3.216700000000000115e-01 7.081050000000000288e+00 3.438250000000000028e+00 2.955311000000000021e+01 -3.244419999999999860e+00 7.134159999999999613e+00 6.859040000000000248e+00 -1.383790000000000076e+00 3.726290000000000102e+00 7.080020000000000202e+00 9.902900000000000036e-01 6.856480000000000352e+00 6.697499999999999787e+00 3.117970000000000130e+00 2.554260000000000197e+00 6.802940000000000431e+00 7.910000000000000364e-01 4.237260000000000026e+00 3.574570000000000025e+00 4.758729999999999905e+00 4.170919999999999739e+00 3.380570000000000075e+00 2.480010000000000048e+00 8.031199999999999450e-01 3.636019999999999808e+00 6.827259999999999884e+00 1.128770000000000051e+00 3.632089999999999819e+00
-7.698099999999999943e-01 1.478239999999999998e+00 3.111920000000000019e+00 -7.686699999999999644e-01 5.445109999999999673e+00 2.871170000000000222e+00 5.599260000000000126e+00 2.069319999999999826e+00 2.396942999999999913e+01 4.308460000000000178e+00 6.320000000000000097e-03 2.204923000000000144e+01 -1.923620000000000108e+00 3.910839999999999872e+00 6.919349999999999667e+00 2.515849999999999920e+00 3.878400000000000070e+00 6.387599999999999945e-01 1.077499999999999902e+00 1.612710000000000088e+00 6.696229999999999905e+00 1.184220000000000050e+00 5.764730000000000132e+00 6.753219999999999779e+00 1.428500000000000103e+00 3.655060000000000198e+00 2.119273000000000096e+01 3.003299999999999859e+00 5.856460000000000221e+00 2.345623000000000147e+01 -1.338300000000000045e-01 3.558949999999999836e+00 8.571600000000000330e-01 3.461749999999999883e+00 2.501650000000000151e+00 2.266853000000000051e+01 1.938350000000000017e+00 1.825329999999999897e+00 4.227979999999999627e+00 3.637820000000000054e+00 1.539760000000000018e+00 8.195420000000000371e+00 2.206200000000000105e-01 3.422899999999999832e+00 8.294029999999999347e+00 -3.309320000000000039e+00 5.886309999999999931e+00 7.992070000000000007e+00 -2.850789999999999935e+00 6.050690000000000346e+00 1.222099999999999964e+00 4.075919999999999987e+00 1.673750000000000071e+00 1.639240000000000030e+00 4.674760000000000026e+00 3.775180000000000202e+00 4.316049999999999720e+00 1.865930000000000089e+00 5.210560000000000080e+00 4.131079999999999863e+00
-6.876999999999999780e-01 1.575309999999999988e+00 3.128579999999999917e+00 -7.354899999999999771e-01 5.479790000000000383e+00 2.949990000000000112e+00 5.656939999999999635e+00 2.000570000000000181e+00 2.393322999999999823e+01 4.374620000000000175e+00 3.739999999999999835e-03 2.216043000000000163e+01 -1.990830000000000100e+00 3.934839999999999893e+00 6.909589999999999677e+00 2.540929999999999911e+00 3.912189999999999834e+00 5.725599999999999579e-01 1.143869999999999942e+00 1.599310000000000009e+00 6.712290000000000312e+00 1.183939999999999992e+00 5.758949999999999569e+00 6.814899999999999736e+00 1.466429999999999900e+00 3.702360000000000095e+00 2.115303000000000111e+01 3.054149999999999920e+00 5.801630000000000287e+00 2.349232999999999905e+01 -4.361999999999999905e-02 3.600029999999999841e+00 9.112400000000000500e-01 3.402489999999999792e+00 2.558920000000000083e+00 2.262782999999999944e+01 1.853620000000000045e+00 1.741449999999999942e+00 4.153859999999999886e+00 3.541949999999999932e+00 1.439459999999999962e+00 8.173329999999999984e+00 8.150999999999999912e-02 3.423459999999999948e+00 8.309029999999999916e+00 3.666450000000000209e+00 5.800270000000000259e+00 8.045920000000000627e+00 7.675600000000000200e-01 -5.870000000000000218e-03 1.172129999999999894e+00 4.017859999999999765e+00 1.666449999999999987e+00 1.565849999999999964e+00 4.531950000000000145e+00 3.793379999999999974e+00 4.326089999999999769e+00 1.843760000000000066e+00 5.248440000000000438e+00 4.189059999999999562e+00
3.255729999999999791e+00 3.492719999999999825e+00 2.866403999999999996e+01 1.240029999999999966e+00 5.666140000000000398e+00 2.923113999999999990e+01 4.701389999999999958e+00 8.975100000000000300e-01 1.910300000000000109e+00 3.173610000000000042e+00 5.281930000000000014e+00 3.044719999999999871e+00 6.153579999999999828e+00 3.159419999999999895e+00 4.495879999999999654e+00 4.428849999999999731e+00 6.507600000000000051e+00 6.070990000000000109e+00 2.174209999999999976e+00 2.295139999999999958e+00 6.646149999999999558e+00 5.166199999999999681e-01 6.080149999999999721e+00 6.930310000000000414e+00 7.189799999999999525e-01 3.976560000000000095e+00 2.716494000000000142e+01 7.997100000000000319e-01 2.353499999999999925e+00 2.901584000000000074e+01 3.797000000000000153e+00 5.554160000000000430e+00 2.742200000000000193e-01 5.003490000000000215e+00 1.491570000000000062e+00 2.897924000000000078e+01 1.997740000000000071e+00 8.022999999999999576e-02 8.001559999999999562e+00 -5.716499999999999915e-01 3.802529999999999966e+00 6.695210000000000328e+00 6.428720000000000212e+00 8.874100000000000321e-01 6.564070000000000071e+00 3.152480000000000171e+00 4.600500000000000256e+00 7.704620000000000246e+00 7.077079999999999593e+00 1.795730000000000048e+00 2.531340000000000146e+00 -2.734309999999999796e+00 5.760959999999999859e+00 3.865489999999999871e+00 3.328009999999999913e+00 2.452500000000000124e+00 3.898660000000000014e+00 3.984999999999999654e-02 5.813900000000000290e+00 1.901040000000000063e+00
-5.669100000000000250e-01 4.531259999999999621e+00 3.102500000000000258e-01 1.602910000000000057e+00 1.259200000000000097e+00 1.514180000000000081e+00 3.083549999999999791e+00 4.641379999999999839e+00 1.251370000000000093e+00 5.973410000000000331e+00 1.539609999999999923e+00 1.566799999999999971e+00 7.298680000000000057e+00 2.730799999999999894e-01 5.112669999999999604e+00 4.853830000000000311e+00 4.429000000000000270e+00 4.435649999999999871e+00 -1.065469999999999917e+00 6.774079999999999657e+00 5.555530000000000079e+00 1.021169999999999911e+00 3.737280000000000157e+00 6.006339999999999790e+00 3.451729999999999965e+00 6.840250000000000163e+00 2.807999999999999940e-01 5.450890000000000235e+00 3.526219999999999910e+00 1.043300000000000061e-01 3.869660000000000100e+00 1.561599999999999933e-01 3.031499999999999750e-01 1.179750000000000076e+00 3.455859999999999932e+00 2.853397999999999968e+01 -1.329490000000000061e+00 4.244460000000000122e+00 6.833510000000000417e+00 1.108929999999999971e+00 9.628799999999999581e-01 6.388930000000000220e+00 3.395080000000000098e+00 4.978869999999999685e+00 6.585060000000000358e+00 5.105859999999999843e+00 1.407520000000000104e+00 6.021910000000000096e+00 3.945650000000000102e+00 2.403280000000000083e+00 3.759650000000000158e+00 1.766669999999999963e+00 5.610459999999999781e+00 2.956090000000000106e+00 -2.614299999999999957e-01 2.546809999999999796e+00 3.117100000000000204e+00 -2.171899999999999942e+00 6.034500000000000419e+00 3.072810000000000041e+00
-5.494200000000000195e-01 4.538569999999999993e+00 2.915499999999999758e-01 1.591320000000000068e+00 1.312650000000000095e+00 1.578810000000000047e+00 3.171749999999999847e+00 4.530870000000000175e+00 1.152570000000000094e+00 5.993680000000000341e+00 1.516979999999999995e+00 1.476750000000000007e+00 7.198710000000000164e+00 2.869300000000000184e-01 5.093119999999999870e+00 4.891600000000000392e+00 4.535689999999999777e+00 4.441919999999999646e+00 -1.090710000000000068e+00 6.804619999999999891e+00 5.630469999999999864e+00 9.942100000000000382e-01 3.557840000000000114e+00 5.974840000000000373e+00 3.586030000000000051e+00 6.842369999999999841e+00 2.990300000000000180e-01 5.366209999999999702e+00 3.536999999999999922e+00 1.154499999999999971e-01 3.899449999999999861e+00 1.060799999999999937e-01 3.350799999999999890e-01 1.162169999999999925e+00 3.507839999999999847e+00 2.848815000000000097e+01 -1.375359999999999916e+00 4.326190000000000424e+00 6.872130000000000294e+00 1.029949999999999921e+00 8.682100000000000373e-01 6.395850000000000257e+00 3.399939999999999962e+00 5.036999999999999922e+00 6.605019999999999669e+00 4.956159999999999677e+00 1.391180000000000083e+00 5.977739999999999831e+00 3.908669999999999867e+00 2.351529999999999898e+00 3.586860000000000159e+00 1.763449999999999962e+00 5.626120000000000232e+00 3.054040000000000088e+00 -1.901200000000000112e-01 2.403509999999999813e+00 3.033549999999999969e+00 -2.135829999999999895e+00 6.117700000000000138e+00 3.101710000000000189e+00
4.866319999999999979e+00 4.065799999999999970e-01 1.052059999999999995e+00 4.002650000000000041e+00 4.787849999999999717e+00 5.743000000000000327e-01 1.512979999999999992e+00 7.725300000000000500e-01 1.934390000000000054e+00 -1.787100000000000077e-01 7.196570000000000356e+00 6.121809999999999974e+00 6.349400000000000155e+00 3.220100000000000184e-01 4.025389999999999802e+00 5.309660000000000046e+00 3.705900000000000194e+00 5.802069999999999617e+00 -6.421599999999999531e-01 3.851649999999999796e+00 1.119410000000000016e+00 1.544059999999999988e+00 3.470380000000000020e+00 6.173110000000000319e+00 2.085199999999999942e+00 2.823449999999999793e+00 2.965897999999999968e+01 8.617799999999999905e-01 6.570249999999999702e+00 2.916817999999999955e+01 -6.525699999999999834e-01 1.421850000000000058e+00 2.918700000000000183e-01 -2.732540000000000191e+00 6.648850000000000371e+00 2.912997999999999976e+01 -4.124999999999999778e-01 4.706279999999999575e+00 7.209649999999999892e+00 1.556100000000000039e+00 9.849400000000000377e-01 6.927150000000000141e+00 3.705729999999999968e+00 5.349330000000000140e+00 6.758779999999999788e+00 6.170049999999999812e+00 6.995700000000000252e-01 6.555410000000000181e+00 9.132999999999999452e-02 6.349849999999999994e+00 3.505910000000000082e+00 5.176219999999999821e+00 3.500919999999999810e+00 2.569459999999999855e+00 4.564589999999999925e+00 6.040029999999999788e+00 3.013510000000000133e+00 8.962400000000000366e-01 3.139759999999999884e+00 3.416959999999999997e+00