-9.110340000000000105e-01 -2.968339999999999868e-01 -6.959699999999999775e-01 2.344769999999999910e-01 3.109879999999999867e-01 -9.924760000000000248e-01 5.352569999999999828e-01 1.330629999999999979e+00 -2.052190000000000125e-01 -1.938255000000000061e+00 -8.346510000000000318e-01 5.925099999999999811e-02 2.099165000000000170e+00 -6.980830000000000091e-01 6.619119999999999449e-01 -1.144000000000000052e-03 1.162107999999999919e+00 9.779069999999999707e-01 4.152719999999999745e-01 8.751899999999999957e-02 -1.131312000000000095e+00 1.856319999999999915e-01 -6.791979999999999684e-01 1.151607000000000047e+00 -8.832480000000000331e-01 1.287700999999999985e+00 1.159424000000000010e+00 9.397480000000000278e-01 -7.721289999999999543e-01 9.219030000000000280e-01 6.423199999999999743e-02 1.878460000000000130e-01 -2.341090000000000115e-01 -1.027482999999999924e+00 -1.608441000000000010e+00 -5.606699999999999878e-02 3.919409999999999838e-01 6.077300000000000063e-02 -5.351920000000000011e-01 1.283579999999999999e-01 -5.434999999999999727e-03 -7.914349999999999996e-01 -5.858769999999999811e-01 4.962969999999999882e-01 -8.041059999999999874e-01 4.693499999999999756e-02 7.954179999999999584e-01 8.120000000000000551e-01 3.164589999999999903e-01 -7.063819999999999544e-01 -2.276219999999999910e-01 1.761030000000000095e+00 6.270900000000000363e-01 -8.107300000000000617e-02 1.754999999999999963e-02 -4.968980000000000063e-01 -5.376180000000000403e-01 -1.789014000000000104e+00 -2.483190000000000119e-01 5.481939999999999591e-01
-2.914979999999999793e-01 1.866805999999999965e+00 1.356238999999999972e+00 9.847899999999999709e-02 -4.167230000000000101e-01 3.985670000000000046e-01 8.697329999999999783e-01 4.649429999999999952e-01 -6.311999999999999833e-01 5.107169999999999765e-01 -1.059004999999999974e+00 -9.438399999999999568e-02 -2.902730000000000032e-01 9.201890000000000347e-01 3.826919999999999766e-01 2.899140000000000050e-01 1.008763999999999994e+00 -1.105034999999999989e+00 4.821840000000000015e-01 -2.725557999999999925e+00 4.541169999999999929e-01 2.267164999999999875e+00 2.173617000000000132e+00 -1.849760999999999989e+00 -7.128139999999999477e-01 5.396729999999999583e-01 2.177030000000000076e-01 4.753749999999999920e-01 -2.016334000000000071e+00 -1.800256999999999996e+00 -1.930099999999999871e-02 4.542959999999999776e-01 -4.991500000000000103e-02 -2.416520000000000057e-01 -7.622870000000000479e-01 4.091369999999999729e-01 9.212660000000000293e-01 -4.249319999999999764e-01 6.994709999999999539e-01 -9.856479999999999686e-01 -4.679019999999999846e-01 1.958298000000000094e+00 -1.798815000000000053e+00 -3.001039999999999819e-01 -8.245999999999999996e-01 -6.045329999999999870e-01 5.501199999999999840e-02 -2.487300000000000066e-01 -4.653269999999999906e-01 2.758939999999999726e-01 6.126190000000000246e-01 -8.126740000000000075e-01 2.696839999999999793e-01 2.124810000000000032e-01 5.944110000000000227e-01 2.395849999999999924e-01 -3.761099999999999860e-02 -2.867069999999999896e-01 -9.561799999999999466e-02 -5.983100000000000224e-02
-5.746940000000000381e-01 -8.736099999999999421e-02 -4.837179999999999813e-01 7.362729999999999553e-01 1.333799999999999986e-01 -4.297759999999999914e-01 -7.345400000000000540e-02 -1.249806999999999890e+00 -5.530939999999999745e-01 -1.867640000000000133e-01 1.418117999999999990e+00 1.598400000000000168e-02 -4.820519999999999805e-01 -4.674299999999999983e-02 1.010880999999999919e+00 -3.826800000000000340e-02 5.202109999999999790e-01 5.995500000000000274e-01 1.301917999999999909e+00 1.607010000000000105e-01 5.034239999999999826e-01 5.608649999999999469e-01 1.555370000000000086e-01 2.418009999999999882e-01 6.170309999999999961e-01 -4.645409999999999817e-01 7.259400000000000575e-02 -1.013751000000000069e+00 5.537480000000000180e-01 -1.466210000000000013e-01 2.913879999999999804e-01 -2.195060000000000067e-01 -3.307350000000000012e-01 1.733799999999999925e-02 1.371799999999999929e-02 6.376190000000000468e-01 -5.894449999999999967e-01 -7.378000000000000010e-03 1.767249999999999932e-01 4.257099999999999773e-02 -9.022200000000000220e-01 -5.760929999999999662e-01 -1.740410000000000013e-01 3.426810000000000134e-01 -6.601139999999999786e-01 -2.206089999999999995e-01 -5.029999999999999749e-04 -5.547729999999999606e-01 1.247905999999999960e+00 -1.985310000000000130e-01 8.763450000000000406e-01 2.676060000000000105e-01 1.784000000000000030e-01 -3.230700000000000238e-01 -1.380611999999999950e+00 -4.419549999999999867e-01 -2.066199999999999981e-01 -3.492069999999999896e-01 1.420510000000000106e-01 1.296910000000000007e-01
-1.600576999999999916e+00 -9.641359999999999930e-01 4.677239999999999731e-01 6.616610000000000547e-01 -4.059450000000000003e-01 3.678950000000000276e-01 -1.407980000000000065e-01 -6.304229999999999556e-01 1.485390000000000044e-01 -3.702340000000000075e-01 1.672599999999999920e-01 9.804260000000000197e-01 -7.132439999999999891e-01 4.846369999999999845e-01 1.869699999999999973e-01 1.141489999999999894e+00 7.281109999999999527e-01 1.572220000000000006e-01 5.563289999999999624e-01 4.360530000000000239e-01 -2.598759999999999959e-01 1.923860000000000015e-01 -4.427799999999999792e-02 2.031518000000000157e+00 -1.245918999999999999e+00 1.229890000000000011e-01 3.708549999999999902e-01 3.829690000000000039e-01 -4.340399999999999814e-01 -3.812380000000000213e-01 -8.336959999999999926e-01 -4.734450000000000047e-01 -1.379987000000000075e+00 -2.037000000000000182e-03 2.969459999999999877e-01 -2.603170000000000206e-01 1.081882999999999928e+00 -1.193000000000000050e-03 5.792059999999999986e-01 -2.220679999999999876e-01 -1.544599999999999966e-02 1.260789999999999966e-01 -2.335980000000000001e-01 3.328200000000000047e-01 -1.252332000000000001e+00 3.314750000000000196e-01 -7.610240000000000338e-01 1.334420000000000051e-01 6.369730000000000114e-01 5.840090000000000003e-01 -8.141779999999999573e-01 3.831799999999999790e-02 -1.862099999999999866e-02 -1.290874999999999995e+00 -4.530300000000000299e-02 -5.262499999999999817e-02 1.660773999999999972e+00 3.839920000000000000e-01 6.483520000000000394e-01 -1.571847999999999912e+00
1.334800000000000049e-02 -8.677600000000000591e-02 6.522930000000000117e-01 -5.559279999999999777e-01 1.252769999999999995e-01 5.165250000000000119e-01 2.927839999999999887e-01 7.843740000000000157e-01 8.086899999999999644e-02 -3.666166000000000036e+00 2.712528999999999968e+00 2.026670000000000138e-01 2.941099999999999826e-01 -8.459449999999999470e-01 -9.033769999999999856e-01 3.858299999999999924e-02 1.936700000000000088e-01 1.059969999999999940e-01 -1.416126999999999914e+00 7.073019999999999863e-01 -3.793179999999999885e-01 4.537869999999999959e-01 1.803389999999999993e-01 -7.260609999999999564e-01 3.536588000000000065e+00 -2.013761999999999830e+00 -7.322800000000000142e-02 -3.938679999999999959e-01 -9.986979999999999746e-01 1.291680000000000050e-01 2.465529999999999944e-01 1.329170000000000074e-01 -4.127399999999999819e-02 2.201700000000000046e-01 -2.756449999999999734e-01 -4.800380000000000202e-01 1.347009999999999874e-01 -1.379458999999999991e+00 1.722050999999999998e+00 3.616730000000000222e-01 3.282909999999999995e-01 -4.089050000000000185e-01 -2.095150000000000068e-01 -3.612750000000000128e-01 1.064439999999999970e-01 -7.190189999999999637e-01 1.317183999999999910e+00 4.668510000000000160e-01 1.534694000000000003e+00 2.591330000000000022e-01 -7.612800000000000122e-02 -8.587500000000000688e-02 -2.631490000000000218e-01 -2.204919999999999936e-01 3.956609999999999849e-01 4.288620000000000210e-01 -1.020636000000000099e+00 -4.761529999999999929e-01 -9.451699999999999546e-01 3.465920000000000112e-01
-1.545660000000000089e-01 -1.954539999999999889e-01 -3.821860000000000257e-01 -1.371658000000000044e+00 9.123280000000000278e-01 2.943899999999999850e-01 -1.361869999999999914e+00 1.654760999999999926e+00 4.163040000000000074e-01 -9.870000000000000301e-03 -1.465708000000000011e+00 -2.253429999999999878e-01 -2.742539999999999978e-01 1.042351999999999945e+00 -7.952460000000000084e-01 1.232261999999999968e+00 2.088129999999999986e-01 1.473845000000000072e+00 1.119920999999999944e+00 -1.121537000000000006e+00 2.732263999999999804e+00 -5.873059999999999947e-01 1.367440000000000044e-01 -1.992582999999999993e+00 2.295520000000000060e-01 -9.120899999999999841e-02 -7.867680000000000229e-01 5.698109999999999564e-01 -1.036672000000000038e+00 -1.372128999999999932e+00 1.595669000000000004e+00 2.783930000000000016e-01 7.855769999999999698e-01 6.602900000000000436e-01 9.135990000000000499e-01 5.873580000000000467e-01 -9.993429999999999813e-01 2.766109999999999958e-01 -5.884999999999999606e-03 -1.211030000000000023e-01 5.157699999999999507e-01 -1.155145000000000088e+00 7.649839999999999973e-01 -1.009109999999999951e+00 4.600040000000000240e-01 -2.620770000000000044e-01 6.607000000000000026e-03 1.839949999999999919e-01 6.463999999999999746e-01 3.664499999999999702e-02 4.665860000000000007e-01 -3.858260000000000023e-01 -9.025440000000000129e-01 -1.412563000000000013e+00 -3.385940000000000061e-01 7.622689999999999744e-01 1.013560000000000016e-01 -9.524209999999999621e-01 -9.226560000000000317e-01 6.261710000000000331e-01
-3.257010000000000183e-01 9.774059999999999970e-01 -6.831490000000000062e-01 -4.080429999999999890e-01 -1.355530000000000068e-01 2.696799999999999892e-02 2.653789999999999760e-01 -1.534227999999999925e+00 -1.058003000000000027e+00 5.502920000000000034e-01 2.426349999999999896e-01 -2.213354999999999961e+00 -7.009039999999999715e-01 -1.392809999999999881e-01 2.760739999999999861e-01 -1.833430000000000060e-01 -2.722169999999999868e-01 5.378600000000000048e-02 5.599020000000000108e-01 7.986100000000000421e-01 8.559949999999999504e-01 7.782400000000000428e-02 -4.568539999999999823e-01 -3.360969999999999791e-01 -2.510479999999999934e-01 4.140800000000000036e-02 5.708410000000000428e-01 -7.369170000000000442e-01 -3.213889999999999803e-01 -2.025550000000000128e-01 7.403910000000000213e-01 8.911499999999999977e-01 2.745124000000000120e+00 -3.512640000000000207e-01 7.946790000000000243e-01 -3.533569999999999767e-01 3.046789999999999776e-01 6.475539999999999630e-01 1.424800000000000025e-02 2.484000000000000097e-03 4.622280000000000277e-01 -2.203410000000000091e-01 5.016580000000000483e-01 1.262060000000000126e-01 -1.139804999999999957e+00 -3.162349999999999883e-01 -1.380241000000000051e+00 1.997039999999999926e-01 2.102829999999999977e-01 3.275560000000000138e-01 -2.133529999999999871e-01 -3.614040000000000030e-01 -2.019080000000000041e-01 -1.147650000000000059e-01 4.872710000000000097e-01 -1.501319999999999877e-01 3.079899999999999860e-01 -6.530400000000000094e-02 -7.176310000000000189e-01 1.484048999999999952e+00
1.037508000000000097e+00 3.174069999999999947e-01 9.160999999999999699e-02 -5.479429999999999579e-01 -2.629824000000000161e+00 1.626959999999999962e+00 3.405600000000000294e-02 -3.224310000000000231e-01 -1.473870999999999931e+00 1.049412999999999929e+00 8.121129999999999738e-01 -1.853955999999999937e+00 -2.542369999999999908e-01 1.373437000000000019e+00 -4.982800000000000007e-01 2.602529000000000092e+00 -8.753900000000000570e-02 4.996169999999999778e-01 8.759200000000000319e-02 7.005660000000000220e-01 6.613399999999999834e-02 -5.176070000000000393e-01 3.530320000000000125e-01 -2.635810000000000097e-01 -7.719570000000000043e-01 1.336529000000000078e+00 2.601729999999999876e-01 -4.856300000000000200e-02 -7.821970000000000312e-01 3.904159999999999853e-01 -6.478369999999999962e-01 5.966590000000000504e-01 -4.811300000000000299e-02 9.127629999999999910e-01 1.154301000000000021e+00 -1.069361000000000006e+00 5.575590000000000268e-01 3.395159999999999845e-01 2.940710000000000268e-01 -6.273560000000000247e-01 -1.276221999999999968e+00 2.869619999999999949e-01 -1.926774999999999904e+00 7.601989999999999581e-01 -6.494349999999999845e-01 -4.418380000000000085e-01 4.476140000000000119e-01 -8.727200000000000235e-02 3.845600000000000129e-01 -8.277640000000000553e-01 2.646569999999999756e-01 1.713820000000000066e-01 -5.422789999999999555e-01 6.359420000000000073e-01 -7.399430000000000174e-01 2.670600000000000057e-02 1.301679999999999948e+00 -3.133050000000000002e-01 -1.749822999999999906e+00 2.256479999999999875e-01
-1.600454000000000043e+00 1.344879999999999964e-01 4.918560000000000154e-01 -7.789949999999999930e-01 -4.555620000000000225e-01 -3.014399999999999857e-01 1.688530000000000031e-01 -2.270199999999999996e-02 1.179879999999999957e-01 -4.125440000000000218e-01 -1.834679999999999922e-01 9.386130000000000306e-01 9.570309999999999651e-01 9.431450000000000111e-01 -1.294861999999999957e+00 -1.486880999999999897e+00 7.217820000000000347e-01 -6.224739999999999718e-01 1.456981000000000082e+00 -4.022959999999999869e-01 -1.211942000000000075e+00 -3.442569999999999797e-01 -1.146957999999999922e+00 3.293900000000000161e-01 7.371039999999999814e-01 -4.480520000000000058e-01 6.589230000000000365e-01 4.450279999999999792e-01 7.569150000000000045e-01 -1.125191999999999970e+00 2.434169999999999945e-01 8.232979999999999743e-01 -8.547890000000000210e-01 6.873350000000000293e-01 -1.139970000000000011e-01 3.005369999999999986e-01 -4.387400000000000189e-01 -1.846559000000000061e+00 1.726332999999999895e+00 5.033699999999999841e-01 2.758909999999999973e-01 -4.345040000000000013e-01 -1.047431999999999919e+00 3.112409999999999899e-01 9.963920000000000554e-01 1.115420000000000078e+00 8.959279999999999466e-01 8.148119999999999807e-01 1.327129999999999976e-01 -3.004809999999999981e-01 1.617800000000000141e-02 1.908509999999999929e-01 -2.447139999999999871e-01 4.014599999999999835e-01 8.288000000000000228e-03 -1.105290000000000106e+00 -6.197150000000000158e-01 -5.370890000000000386e-01 1.407391999999999976e+00 -3.275629999999999931e-01
-1.392559000000000102e+00 9.685089999999999533e-01 2.642450000000000077e-01 4.539179999999999882e-01 -9.315440000000000387e-01 -7.030089999999999950e-01 2.024420000000000108e-01 -2.026905999999999874e+00 1.406994000000000078e+00 -7.731719999999999704e-01 6.200100000000000056e-02 -5.150590000000000446e-01 -8.077269999999999728e-01 -9.903450000000000308e-01 1.642979999999999996e-01 -3.063870000000000204e-01 -4.015730000000000133e-01 2.528520000000000212e-01 3.003259999999999819e-01 1.390500000000000069e-01 3.073370000000000268e-01 3.722809999999999730e-01 -2.120450000000000113e-01 1.293841999999999937e+00 9.025870000000000282e-01 1.527371000000000034e+00 -1.301746000000000070e+00 -2.827339999999999853e-01 2.941380000000000106e-01 4.758809999999999985e-01 -1.266069999999999973e-01 -1.432720000000000105e-01 5.957799999999999763e-01 1.062742999999999993e+00 -6.600580000000000336e-01 -1.395831000000000044e+00 1.775760000000000116e-01 7.176000000000000087e-03 -5.498819999999999819e-01 3.146490000000000120e-01 1.497330000000000050e-01 -2.956999999999999993e-03 -4.016100000000000225e-02 -6.228630000000000555e-01 -8.390039999999999720e-01 -1.546069999999999944e-01 7.844060000000000477e-01 -6.232659999999999867e-01 7.987579999999999680e-01 7.746589999999999865e-01 1.867070000000000118e-01 1.567790000000000017e+00 -2.200999999999999832e-03 -4.456800000000000206e-01 -8.704530000000000323e-01 1.093517000000000072e+00 5.828740000000000032e-01 -1.398662000000000072e+00 1.902500000000000024e-01 8.456219999999999848e-01
6.753679999999999684e-01 3.369179999999999953e-01 -8.741970000000000018e-01 -1.870535999999999976e+00 9.455339999999999856e-01 1.835914000000000046e+00 -5.897139999999999604e-01 -3.639900000000000080e-02 7.313400000000000456e-02 -7.936010000000000009e-01 -2.330799999999999886e-02 3.194770000000000110e-01 5.864150000000000196e-01 1.176109000000000071e+00 -5.582430000000000447e-01 -4.578059999999999907e-01 -2.129999999999999949e-01 -1.494779999999999998e-01 -1.008086000000000038e+00 -1.329220000000000124e-01 6.409800000000000220e-02 3.473189999999999888e-01 7.265200000000000546e-01 1.829899999999999929e-02 1.926455999999999946e+00 -7.920209999999999750e-01 -6.553949999999999498e-01 2.184669999999999945e-01 1.933209999999999928e-01 7.788270000000000470e-01 1.792672000000000043e+00 -1.367785000000000029e+00 -4.202819999999999889e-01 -8.117569999999999508e-01 -3.875270000000000103e-01 2.190110000000000112e-01 6.730500000000000371e-02 -1.202570000000000028e-01 4.571599999999999969e-02 6.282680000000000486e-01 -3.674669999999999881e-01 6.712970000000000326e-01 3.511190000000000144e-01 -2.018961000000000006e+00 6.324060000000000237e-01 7.122399999999999565e-02 1.918952999999999909e+00 7.409120000000000150e-01 -4.369210000000000038e-01 3.678009999999999891e-01 -1.444249999999999978e-01 8.583799999999999764e-02 4.542800000000000310e-02 -1.015681000000000056e+00 -2.711500000000000021e-01 7.360489999999999533e-01 8.172549999999999537e-01 -5.108800000000000008e-01 -9.869860000000000300e-01 -2.398645999999999834e+00
2.096230000000000038e-01 -7.605800000000000061e-02 1.559085999999999972e+00 2.151430000000000009e-01 -5.724399999999999489e-01 1.283225999999999978e+00 -2.351999999999999924e-01 1.411707000000000045e+00 1.008834000000000009e+00 9.385699999999999599e-02 -1.124282999999999921e+00 -4.180729999999999724e-01 -3.488100000000000228e-02 4.348440000000000083e-01 2.260831000000000035e+00 -1.193476999999999899e+00 -1.279029999999999889e-01 6.289000000000000146e-02 2.299779999999999880e-01 -7.973620000000000152e-01 -5.392299999999999871e-01 7.982000000000000206e-02 2.548590000000000022e-01 -9.905829999999999913e-01 -2.535549999999999748e-01 -8.664479999999999960e-01 -1.515459999999999863e-01 2.090399999999999897e-02 -4.608590000000000186e-01 -5.834479999999999666e-01 5.775519999999999543e-01 -9.408689999999999554e-01 -4.934450000000000225e-01 4.959470000000000267e-01 1.345236000000000098e+00 -4.450729999999999964e-01 6.100900000000000073e-02 7.057820000000000205e-01 -8.167699999999999960e-02 -8.626610000000000111e-01 -1.173526000000000069e+00 -2.160259999999999958e-01 4.438489999999999935e-01 6.039390000000000036e-01 -5.836130000000000484e-01 4.304259999999999753e-01 -1.027769999999999934e-01 6.918299999999999450e-02 -4.321799999999999947e-02 4.558429999999999982e-01 -1.685800000000000076e-01 1.767799999999999927e-02 7.141359999999999930e-01 -2.161300000000000027e-02 9.111350000000000282e-01 9.615000000000000283e-03 -1.878139000000000003e+00 -1.163928999999999991e+00 3.065629999999999744e-01 3.269960000000000089e-01
-7.372039999999999704e-01 2.517119999999999913e-01 -9.690229999999999677e-01 4.055600000000000177e-02 -1.943237000000000103e+00 -9.147229999999999528e-01 7.822719999999999674e-01 6.089449999999999585e-01 1.404990000000000128e-01 1.427519999999999900e-01 -1.252227999999999897e+00 -6.432642000000000415e+00 -1.452631000000000006e+00 4.994709999999999983e-01 1.499646999999999952e+00 5.043579999999999730e-01 -7.651949999999999585e-01 3.783420000000000116e-01 4.788560000000000039e-01 2.924860000000000237e-01 3.000000000000000076e-06 -7.758410000000000029e-01 -1.888400000000000079e-01 -3.221530000000000227e-01 -2.369699999999999862e-01 -2.219309999999999894e-01 5.834639999999999826e-01 -3.537049999999999916e-01 1.183329000000000075e+00 4.291299999999999976e-02 3.934360000000000079e-01 -1.360600000000000004e-02 -1.288900000000000046e-01 3.945230000000000126e-01 7.866720000000000379e-01 -5.164900000000000047e-02 -5.035330000000000084e-01 -9.332859999999999490e-01 -9.752420000000000533e-01 -1.561379999999999990e-01 -4.622200000000000197e-01 -4.215240000000000098e-01 6.469150000000000178e-01 5.702629999999999644e-01 -1.583569999999999978e-01 2.969109999999999805e-01 6.167740000000000444e-01 -2.531909999999999994e-01 -2.864090000000000247e-01 5.097289999999999877e-01 2.374350000000000072e-01 1.727210000000000134e-01 7.324270000000000502e-01 1.340302000000000104e+00 -5.292310000000000070e-01 2.193000000000000158e-02 6.038451000000000235e+00 1.178358999999999934e+00 -2.931940000000000102e-01 3.663379999999999970e-01
1.107309000000000099e+00 3.113679999999999781e-01 2.004960000000000075e-01 1.284710000000000019e-01 4.865689999999999737e-01 3.693000000000000102e-03 1.225270000000000081e+00 3.205140000000000211e-01 1.325272000000000006e+00 1.754090000000000094e-01 -1.431842000000000059e+00 -4.708149999999999835e-01 -7.640780000000000349e-01 -8.105869999999999465e-01 -1.254119999999999957e-01 2.285979999999999956e-01 3.274230000000000196e-01 -2.478130000000000055e-01 2.036503999999999870e+00 1.277533999999999947e+00 -1.568986999999999910e+00 2.714799999999999991e-01 -3.508060000000000067e-01 -7.035999999999999720e-03 -8.622680000000000344e-01 7.275220000000000020e-01 5.331799999999999734e-02 1.580179999999999918e-01 -1.717960000000000043e-01 2.524399999999999908e-02 6.599540000000000406e-01 1.238099999999999964e-02 1.626070000000000015e-01 -8.129450000000000287e-01 2.865699999999999914e-01 -4.927929999999999811e-01 -1.077185999999999977e+00 -2.887359999999999927e-01 5.022879999999999567e-01 -2.732199999999999906e-02 4.509150000000000102e-01 -9.753140000000000143e-01 1.242810000000000026e-01 1.325755000000000017e+00 -2.724190000000000222e-01 -1.077042000000000055e+00 -1.986771999999999982e+00 1.177286999999999972e+00 -3.141639999999999988e-01 -3.489430000000000032e-01 2.565000000000000058e-01 -1.014232999999999940e+00 7.565600000000000103e-02 -1.111504999999999965e+00 8.613079999999999625e-01 -6.595659999999999856e-01 7.052659999999999485e-01 -1.027363000000000026e+00 4.468400000000000150e-01 8.601229999999999709e-01
4.488799999999999735e-02 3.697399999999999992e-02 -4.890780000000000127e-01 -1.246180000000000065e-01 1.249949999999999950e-01 -2.726770000000000027e-01 6.364309999999999690e-01 1.018858000000000041e+00 1.375866000000000033e+00 -3.493550000000000266e-01 -1.336224000000000078e+00 -7.987910000000000288e-01 -5.739030000000000520e-01 -1.088292000000000037e+00 -6.203290000000000193e-01 5.284659999999999913e-01 3.336399999999999921e-01 -6.583200000000000163e-02 1.268869999999999942e+00 8.103650000000000020e-01 -7.596530000000000227e-01 4.531789999999999985e-01 -6.447599999999999998e-01 -2.775810000000000222e-01 -7.158339999999999703e-01 5.016380000000000283e-01 1.107339999999999991e-01 5.237979999999999858e-01 -3.640559999999999907e-01 7.214199999999999779e-02 2.271839999999999971e-01 -8.804599999999999926e-02 1.233210000000000001e-01 -2.765540000000000220e-01 7.770499999999999630e-02 -2.483970000000000067e-01 -7.172460000000000502e-01 1.918219999999999925e-01 9.507790000000000408e-01 -5.880400000000000210e-02 8.221260000000000234e-01 -5.736299999999999732e-01 6.169569999999999776e-01 7.281539999999999679e-01 -4.714050000000000185e-01 -1.195694000000000035e+00 -6.729819999999999691e-01 8.104829999999999535e-01 -3.664339999999999820e-01 -6.277310000000000390e-01 5.059299999999999908e-01 -1.201789999999999942e-01 2.020889999999999909e-01 -6.398909999999999876e-01 1.274775999999999909e+00 -6.249759999999999760e-01 5.540620000000000545e-01 -1.075927999999999995e+00 5.987010000000000387e-01 7.139469999999999983e-01
2.859240000000000115e-01 -1.241049999999999986e+00 2.365160000000000040e-01 -6.614790000000000392e-01 8.277980000000000338e-01 -2.195830000000000004e-01 5.252750000000000474e-01 2.485578999999999983e+00 5.530180000000000096e-01 -1.206150000000000055e+00 -1.601859999999999951e-01 -3.874079999999999746e-01 -1.368939999999999879e-01 -3.008600000000000163e-01 2.542829999999999813e-01 -6.045800000000000063e-01 -4.128060000000000063e-01 8.866270000000000540e-01 8.527099999999999957e-02 1.184862000000000082e+00 -2.383560000000000123e-01 7.165030000000000010e-01 5.709020000000000206e-01 7.645499999999999519e-02 4.423150000000000137e-01 4.662879999999999803e-01 5.901140000000000274e-01 4.499170000000000114e-01 5.467570000000000485e-01 -2.098900000000000071e-02 -3.747139999999999915e-01 -5.527459999999999596e-01 -5.810619999999999674e-01 -8.487500000000000600e-02 3.022859999999999991e-01 -7.312290000000000179e-01 2.380329999999999946e-01 7.841399999999999759e-02 -6.815510000000000179e-01 1.356749999999999901e-01 -9.744589999999999641e-01 -3.748790000000000178e-01 -1.900870000000000060e-01 -3.297320000000000251e-01 -1.898680000000000090e-01 -2.306709999999999872e-01 -1.368979999999999919e-01 -4.745869999999999811e-01 1.250880000000000047e-01 5.413699999999999762e-02 1.650919999999999888e-01 1.036775999999999920e+00 3.915000000000000147e-01 4.952440000000000175e-01 2.977150000000000074e-01 -4.636300000000000143e-02 3.227970000000000006e-01 -8.490410000000000457e-01 -2.753425000000000011e+00 3.193639999999999812e-01
7.039609999999999479e-01 5.873909999999999965e-01 4.228469999999999729e-01 -5.381439999999999557e-01 -3.596440000000000192e-01 -5.054700000000000165e-02 1.164983000000000102e+00 -2.633297999999999917e+00 -1.245762000000000036e+00 1.975030000000000119e-01 -1.348157000000000050e+00 8.338569999999999593e-01 -5.849729999999999652e-01 -2.098119999999999985e-01 -7.346740000000000492e-01 6.330090000000000439e-01 1.820607000000000086e+00 1.432806999999999942e+00 6.265009999999999746e-01 -8.973550000000000137e-01 -3.724359999999999893e-01 7.534619999999999651e-01 -3.225729999999999986e-01 -6.424619999999999775e-01 1.011789999999999967e+00 2.296400000000000219e+00 -1.267376000000000058e+00 -6.792510000000000492e-01 4.584349999999999814e-01 -8.272540000000000449e-01 -5.492780000000000440e-01 -1.103949999999999931e-01 -1.417779999999999874e-01 2.497900000000000120e-02 8.435259999999999980e-01 1.613590000000000024e-01 -1.729120000000000101e-01 9.102580000000000116e-01 -5.480669999999999709e-01 -4.004739999999999966e-01 1.187289000000000039e+00 1.025492000000000070e+00 -5.080909999999999593e-01 8.133500000000000452e-02 1.097599999999999965e-01 3.719000000000000083e-01 -9.329129999999999923e-01 9.922579999999999734e-01 -1.377283000000000035e+00 -2.404733999999999927e+00 -2.906235999999999819e+00 -1.564395999999999898e+00 1.154746000000000050e+00 3.438779999999999948e+00 -1.722420000000000062e-01 -4.746960000000000068e-01 -1.786099999999999841e-02 1.058956999999999926e+00 3.535909999999999886e-01 3.372910000000000075e-01
1.712799999999999878e-01 5.676799999999999624e-01 4.615960000000000063e-01 3.395079999999999765e-01 -8.210830000000000073e-01 -7.051129999999999898e-01 -5.182719999999999549e-01 -6.277890000000000414e-01 7.071600000000000108e-01 1.617740000000000011e-01 -1.604767000000000055e+00 9.776359999999999495e-01 -8.877099999999999991e-01 -5.865860000000000518e-01 -9.310030000000000250e-01 -8.038199999999999790e-01 -6.649209999999999843e-01 1.184625000000000039e+00 7.097700000000000120e-01 -1.717030000000000056e+00 -7.508879999999999999e-01 5.319789999999999797e-01 4.540830000000000144e-01 -4.170229999999999770e-01 5.918639999999999457e-01 1.627048000000000050e+00 -9.519069999999999476e-01 4.629969999999999919e-01 3.356489999999999752e-01 -1.184126000000000012e+00 -7.304680000000000062e-01 1.473889999999999922e-01 -3.140910000000000091e-01 1.125609999999999944e-01 4.092899999999999872e-01 -1.464399999999999868e-01 2.915139999999999953e-01 6.062670000000000003e-01 -8.378630000000000244e-01 -8.518790000000000529e-01 1.468229999999999924e+00 1.381310999999999956e+00 -6.280390000000000139e-01 -3.484309999999999907e-01 -1.210230000000000056e-01 1.055288000000000004e+00 -9.789399999999999491e-02 9.821760000000000490e-01 -2.372829999999999939e-01 -8.499500000000000111e-02 -1.804335000000000022e+00 -8.600599999999999912e-02 2.781210000000000071e-01 1.449060999999999932e+00 -1.022772999999999932e+00 4.897469999999999879e-01 8.652159999999999851e-01 1.337715999999999905e+00 1.699920000000000042e-01 1.550290000000000001e-01
2.400599999999999956e-01 7.353960000000000496e-01 -6.236329999999999929e-01 -9.747890000000000166e-01 1.660399999999999932e-01 -1.072143999999999986e+00 -3.492080000000000184e-01 9.937829999999999719e-01 -7.503500000000000447e-02 -5.161489999999999689e-01 -5.337610000000000410e-01 1.537679999999999880e-01 8.799179999999999779e-01 -9.962999999999999634e-02 -7.724149999999999627e-01 1.204760000000000053e+00 -7.653410000000000490e-01 -6.851200000000000345e-02 2.710399999999999962e-02 8.271960000000000424e-01 -3.565130000000000243e-01 7.386829999999999785e-01 1.174690000000000040e-01 -5.199169999999999625e-01 1.204895999999999967e+00 -1.060279999999999972e-01 2.711709999999999954e-01 3.252050000000000218e-01 -7.664180000000000437e-01 7.789509999999999490e-01 -5.963319999999999732e-01 -2.630049999999999888e-01 -1.493279999999999885e-01 3.552199999999999802e-02 -8.071270000000000389e-01 9.028659999999999464e-01 -8.011890000000000400e-01 3.707509999999999972e-01 -1.621430000000000093e-01 4.884299999999999753e-02 3.001599999999999824e-01 1.047599999999999920e-02 -1.154943000000000053e+00 -5.914239999999999498e-01 -1.194069999999999993e-01 -1.596100000000000019e-01 1.163175000000000070e+00 2.999069999999999792e-01 3.917000000000000343e-02 6.058639999999999581e-01 -3.607710000000000083e-01 6.686320000000000041e-01 -1.389154999999999918e+00 1.062006999999999923e+00 -1.025782999999999889e+00 6.585389999999999855e-01 8.397799999999999709e-01 1.652089999999999947e-01 -6.164840000000000320e-01 -3.910799999999999693e-02