8.046413010679449584e+00 -4.751200153514414382e+00 1.530112802307296072e+00 -4.751200153514414382e+00 5.630419335789120794e-01 1.162201589651183031e+00 1.530112802307296072e+00 1.162201589651183031e+00 7.083907207247623905e-01
9.227984235070540109e+00 5.366383905404449317e-01 -1.745207854234295475e+00 5.366383905404449317e-01 8.800885179914537559e+00 3.385463225674895771e+00 -1.745207854234295475e+00 3.385463225674895771e+00 6.394142599230820068e+00
8.101465247216284027e+00 -8.346888579821070131e-01 -1.110942194976790587e+00 -8.346888579821070131e-01 -5.220334315231795586e+00 -6.729292897985974520e-01 -1.110942194976790587e+00 -6.729292897985974520e-01 1.628566626541066986e+00
-4.899300150430306644e+00 -2.448937908821195997e+00 1.253388574965220048e+00 -2.448937908821195997e+00 -8.440701307582145319e+00 1.328845841524978644e+00 1.253388574965220048e+00 1.328845841524978644e+00 3.817114758012458253e+00
5.185256919851082280e+00 -6.837766133729624940e+00 -8.914561999245778079e-01 -6.837766133729624940e+00 1.089821888265679384e+00 -2.055236015619402168e-01 -8.914561999245778079e-01 -2.055236015619402168e-01 -8.031286271573586655e-01
5.079315091426581219e+00 -7.079484704029823661e+00 2.203283995079782009e+00 -7.079484704029823661e+00 4.894524057119744143e+00 -1.413298752609667197e+00 2.203283995079782009e+00 -1.413298752609667197e+00 1.315670130748836364e+01
3.366586014817234129e-02 4.587331149684096943e+00 4.091889604476768305e+00 4.587331149684096943e+00 3.815348069654958429e+00 -5.134410840173791790e+00 4.091889604476768305e+00 -5.134410840173791790e+00 5.843710465733204629e+00
1.110460733508307740e+01 -1.867303753409322198e+00 -2.459499152407481404e+00 -1.867303753409322198e+00 8.180668090432501316e+00 -6.504827621597939924e+00 -2.459499152407481404e+00 -6.504827621597939924e+00 3.236301558337015827e-01
2.085644069933084044e+00 7.784644408648641045e-01 -2.084654002938467698e+00 7.784644408648641045e-01 9.398880697596151634e+00 -9.645679162352137626e-01 -2.084654002938467698e+00 -9.645679162352137626e-01 2.862031311417086776e+00
3.130304250660995269e+00 -2.595920868078728461e+00 -7.816811244814345638e-01 -2.595920868078728461e+00 1.192763082703127253e+00 -2.845534920571298532e+00 -7.816811244814345638e-01 -2.845534920571298532e+00 6.291310145369076734e-01
4.085384456474199233e+00 -1.686877420902749058e+00 -2.998930208320040869e+00 -1.686877420902749058e+00 -9.621512228287401047e-01 7.185089646800107310e+00 -2.998930208320040869e+00 7.185089646800107310e+00 -5.472143986750386269e-01
-7.711406618586172712e+00 4.686892222295706983e-02 -8.168064384044776416e-01 4.686892222295706983e-02 -7.703781900544408145e+00 -3.494157654739760144e+00 -8.168064384044776416e-01 -3.494157654739760144e+00 -2.966643770676562042e+00
-8.357545422291468018e-01 2.498813933479028027e+00 -1.702292520700925627e+00 2.498813933479028027e+00 -4.193219323768373030e+00 -2.942135919894300233e+00 -1.702292520700925627e+00 -2.942135919894300233e+00 1.185867749088558121e+01
2.036218981866017241e+00 2.058661336113551954e+00 2.939195664951812503e+00 2.058661336113551954e+00 1.800371088682889198e+00 1.937942920063145114e-01 2.939195664951812503e+00 1.937942920063145114e-01 -3.597078391424506805e+00
1.043499414787609325e+00 1.092148729302150789e+00 3.313188607736103020e+00 1.092148729302150789e+00 1.282118125320704127e+00 2.811229187722373180e+00 3.313188607736103020e+00 2.811229187722373180e+00 -5.941146445075899507e+00
-6.186987755959377111e+00 1.415964675855407862e+00 8.114557785984477523e-01 1.415964675855407862e+00 -1.289270927195213190e+00 -1.621182444663450850e+00 8.114557785984477523e-01 -1.621182444663450850e+00 -4.607660990170017179e+00
3.208328221077400233e+00 -1.914392370793175369e+00 -2.905389529810223248e+00 -1.914392370793175369e+00 7.809380360589003978e+00 -2.733524333027692599e+00 -2.905389529810223248e+00 -2.733524333027692599e+00 5.608165329525460763e+00
3.924839378210901231e+00 -3.229240955530628288e+00 -2.098661751421652788e+00 -3.229240955530628288e+00 6.124620520156376813e+00 -3.504034806392517076e+00 -2.098661751421652788e+00 -3.504034806392517076e+00 3.807106910953911072e+00
-2.999079118686217349e+00 -2.328288813245677158e+00 -4.367473289962649829e+00 -2.328288813245677158e+00 -2.379186146278562397e+00 3.906964699543787223e+00 -4.367473289962649829e+00 3.906964699543787223e+00 -4.636929758960277148e+00
-3.808829040282937228e+00 7.170906816758369828e+00 4.070473189413991832e+00 7.170906816758369828e+00 -7.346253351027215217e+00 7.590243295998204687e-01 4.070473189413991832e+00 7.590243295998204687e-01 3.011179997778188344e+00
5.350305537370750208e+00 2.956234997317781499e-01 -2.606787899663633556e+00 2.956234997317781499e-01 4.489855421109560041e+00 -2.861225319144821810e+00 -2.606787899663633556e+00 -2.861225319144821810e+00 4.379298423277932173e+00
-5.750596087897133835e+00 1.193144263328913768e+00 -2.141629215646741802e+00 1.193144263328913768e+00 -1.672769827546546351e+00 -2.331664471665459981e+00 -2.141629215646741802e+00 -2.331664471665459981e+00 1.310744033227067451e+00
-4.081554492894224673e+00 1.200251469910020852e+00 -2.903167962819058978e+00 1.200251469910020852e+00 -4.296672126261616320e+00 -1.161253469535463934e+00 -2.903167962819058978e+00 -1.161253469535463934e+00 -8.487094131924790563e-01
1.577059532890725535e+01 4.442372498597299213e+00 -7.411821552479238573e-01 4.442372498597299213e+00 6.480449539248751556e+00 1.954222120821223596e+00 -7.411821552479238573e-01 1.954222120821223596e+00 -4.709434003391715251e+00
3.411976408645589043e+00 -2.562493153865483819e+00 6.569518689010017676e-01 -2.562493153865483819e+00 -2.830897740047042532e+00 1.892162383576106999e+00 6.569518689010017676e-01 1.892162383576106999e+00 2.397375955386060742e+00
8.021536213788300618e-01 2.674723470381831780e-01 -4.582328144235517264e+00 2.674723470381831780e-01 2.598726876626778370e+00 -1.245914560783088598e+00 -4.582328144235517264e+00 -1.245914560783088598e+00 1.014525651774317971e+01
7.187465395931604384e+00 7.285222512083252333e+00 1.356429802437890242e+00 7.285222512083252333e+00 1.680697669678653305e+00 -6.319001980541189667e+00 1.356429802437890242e+00 -6.319001980541189667e+00 9.162703795310719102e+00
-9.681239759730670968e+00 5.215164906643075859e+00 9.007865079097103767e-01 5.215164906643075859e+00 -5.390070421754113994e-01 1.653307667012612781e+00 9.007865079097103767e-01 1.653307667012612781e+00 -5.099038735051519389e+00
-3.661467925343929508e+00 5.003698940177073951e+00 -1.809851798399395140e+00 5.003698940177073951e+00 -3.890585650838197740e+00 -5.043576567990165849e+00 -1.809851798399395140e+00 -5.043576567990165849e+00 2.981484924486736965e+00
6.401251619228672841e-03 4.922180119537028276e+00 4.335049390267156078e+00 4.922180119537028276e+00 1.393957512453670589e+01 9.392979946521256451e+00 4.335049390267156078e+00 9.392979946521256451e+00 4.361327094646533453e+00
-4.040242222261445804e+00 -1.627231763249995300e+00 -2.413790349882438235e+00 -1.627231763249995300e+00 2.051394032452941163e-01 3.621223017180689174e-01 -2.413790349882438235e+00 3.621223017180689174e-01 -1.051860598437136929e+01
-5.224424703874230858e+00 1.777679032447889496e+00 9.309358496573320041e-01 1.777679032447889496e+00 -8.420246044549081432e+00 -4.682012965933624038e+00 9.309358496573320041e-01 -4.682012965933624038e+00 2.695080477420116249e+00
-2.195237867347613614e-01 -3.046430485521191667e+00 -3.640427296773850463e-01 -3.046430485521191667e+00 1.809730354080760328e+00 -1.354168147113760101e+00 -3.640427296773850463e-01 -1.354168147113760101e+00 2.150813715237261725e+00
2.363157334412456789e-01 -6.643227495440943153e-01 1.028009200257053113e+00 -6.643227495440943153e-01 -7.074537586664765065e+00 -3.260370406161231749e+00 1.028009200257053113e+00 -3.260370406161231749e+00 2.238628579210640623e+00
6.587942607011330942e+00 -3.664886278245276796e-01 4.323117688173232942e+00 -3.664886278245276796e-01 -5.868976742949875813e+00 6.280530280469698301e-01 4.323117688173232942e+00 6.280530280469698301e-01 1.584954614209764800e+00
1.788392752346143366e+00 1.792274548112192889e+00 1.810862984747991344e+00 1.792274548112192889e+00 -3.671968399248429549e+00 1.322461542931232970e+00 1.810862984747991344e+00 1.322461542931232970e+00 1.997483735126635240e+00
-3.594049299390261965e+00 6.309501280335285678e+00 -3.519826297406067450e+00 6.309501280335285678e+00 -1.080032217359712554e+00 -3.654209925646873636e+00 -3.519826297406067450e+00 -3.654209925646873636e+00 3.106917681953202059e+00
-7.222947495162603815e+00 4.583695852638510537e+00 -3.996994703724416009e+00 4.583695852638510537e+00 4.048427087084434994e+00 -2.543150123256369355e+00 -3.996994703724416009e+00 -2.543150123256369355e+00 -7.973889881426487136e+00
-2.429198212201125751e-01 2.502484697626566224e+00 -1.303086063366615033e+00 2.502484697626566224e+00 1.960081895890252612e+00 -7.869016193387612379e-01 -1.303086063366615033e+00 -7.869016193387612379e-01 -1.235010967779049551e+01
-5.347870088659081311e+00 2.101025214717790135e+00 -9.462781223475030812e-01 2.101025214717790135e+00 2.560753265363471698e+00 -3.707913529119582496e-01 -9.462781223475030812e-01 -3.707913529119582496e-01 -1.901374443398394565e+00
8.223431876303859411e+00 -4.604343368254136593e+00 -2.086213334981087963e-01 -4.604343368254136593e+00 1.377039739475605984e+00 3.830317608216557534e+00 -2.086213334981087963e-01 3.830317608216557534e+00 9.968807970168747090e+00
1.697402568334035777e+01 -2.880935481314069513e+00 -8.319368956339731058e-01 -2.880935481314069513e+00 6.807282243071679062e+00 -2.751334766595775472e-01 -8.319368956339731058e-01 -2.751334766595775472e-01 2.581508924384727344e+00
2.842194319929916002e+00 -3.376709163507822797e+00 -7.427929296359137012e+00 -3.376709163507822797e+00 1.811216869552922937e+00 -2.155775034132350054e+00 -7.427929296359137012e+00 -2.155775034132350054e+00 9.691009680676293314e+00
-2.947721707222778598e+00 -2.838238939908010128e+00 -1.992242451251888369e+00 -2.838238939908010128e+00 1.329575267895057866e+00 -1.505235082749385445e+00 -1.992242451251888369e+00 -1.505235082749385445e+00 1.009176238591065200e+00
4.762888970380854126e+00 5.569023956842965362e+00 -3.526951318412182790e+00 5.569023956842965362e+00 2.467960326879658162e+00 -2.619016625879063698e-01 -3.526951318412182790e+00 -2.619016625879063698e-01 -6.447761162582719141e-01
-5.261319262460955049e-01 5.170044994241234093e+00 1.003543676433575338e-01 5.170044994241234093e+00 -9.127737830589790491e+00 -3.195180838584097405e+00 1.003543676433575338e-01 -3.195180838584097405e+00 8.730525737411372944e+00
-3.580628428806001740e+00 -2.698538280038322856e+00 -4.255450877441517399e+00 -2.698538280038322856e+00 -7.217545293942312368e-01 -5.846271809253572371e+00 -4.255450877441517399e+00 -5.846271809253572371e+00 -1.642089251257362381e+00
-4.655517630258635187e+00 -4.009450024513137478e+00 1.358890310489772268e+00 -4.009450024513137478e+00 7.409912362924347740e+00 1.172422566438569902e+00 1.358890310489772268e+00 1.172422566438569902e+00 4.351160317126220534e+00
5.433435472514508646e+00 1.795522116002908897e+00 -1.014343990608927193e+01 1.795522116002908897e+00 -4.814116410691876347e+00 -1.392520443345153236e+00 -1.014343990608927193e+01 -1.392520443345153236e+00 1.261347916658996482e+01
-2.321583439900491985e+00 1.834847182320284986e+00 -9.132651867880953178e-01 1.834847182320284986e+00 -1.624332437736517587e+00 -3.680303269957199142e+00 -9.132651867880953178e-01 -3.680303269957199142e+00 2.927262000524228913e+00
8.658628248073777511e-01 3.703379594066142921e+00 -8.804653088429311714e-01 3.703379594066142921e+00 -2.524598811362344097e-01 -2.482763642813732741e+00 -8.804653088429311714e-01 -2.482763642813732741e+00 6.970945207451449299e+00
-4.409226294807691016e-01 -2.705113996069298879e-02 -3.307741111995262662e-01 -2.705113996069298879e-02 1.555559193090551462e+00 -1.672187572833363944e+00 -3.307741111995262662e-01 -1.672187572833363944e+00 -1.293517246210856397e+00
2.169956006343690458e+00 -3.498748426634023634e+00 -3.551488697499694869e+00 -3.498748426634023634e+00 2.106136391106975481e+00 -2.290249501916143071e+00 -3.551488697499694869e+00 -2.290249501916143071e+00 4.761145770057530591e+00
7.898808909019739311e+00 2.961531308777133997e+00 -1.244126800213770201e+00 2.961531308777133997e+00 8.446725433262491478e+00 1.201181482360786257e+00 -1.244126800213770201e+00 1.201181482360786257e+00 4.059373984615250563e+00
-1.307461493472770409e+00 4.870622225257451032e-01 2.079064748045078570e+00 4.870622225257451032e-01 -2.734928105182344193e+00 -1.453306051857638392e+00 2.079064748045078570e+00 -1.453306051857638392e+00 3.906847734284472295e+00
-2.937414286791794282e+00 2.237507308271774242e+00 2.035087244426143194e+00 2.237507308271774242e+00 1.195811794969119379e+00 1.281997425563646154e+00 2.035087244426143194e+00 1.281997425563646154e+00 -4.269485674367100358e+00
-7.800963014997985390e+00 -1.656853171217675669e-01 -6.662158560544924057e-01 -1.656853171217675669e-01 -6.078193230764906474e+00 -3.754297452753222686e+00 -6.662158560544924057e-01 -3.754297452753222686e+00 -2.707608671912365317e+00
1.683500938846350881e+00 1.197477940530758289e+00 2.131977670180815188e-02 1.197477940530758289e+00 1.009952394975520029e+01 -4.209935635880697746e-01 2.131977670180815188e-02 -4.209935635880697746e-01 3.559805920085790998e+00
1.392553059545057614e+01 1.192743652369334884e+00 1.491063032507192743e+00 1.192743652369334884e+00 2.562474873799362118e+00 3.389231353950149295e+00 1.491063032507192743e+00 3.389231353950149295e+00 6.582071083759571728e+00
5.357366621256468342e+00 7.905079395510496154e-02 1.274099413508221090e+00 7.905079395510496154e-02 5.592916063160631168e-01 -1.856649161583184382e+00 1.274099413508221090e+00 -1.856649161583184382e+00 1.744722586102271045e+00
1.202970158927966216e+00 3.185262460457785938e+00 1.780116496753433086e+00 3.185262460457785938e+00 -9.785345706237626118e+00 5.732537471972021237e+00 1.780116496753433086e+00 5.732537471972021237e+00 1.266269264718368648e+00
1.115127959795534451e+01 -2.497233339770408733e+00 -1.418115796977765797e+00 -2.497233339770408733e+00 1.023530612891847547e+01 2.627740839247143523e+00 -1.418115796977765797e+00 2.627740839247143523e+00 3.959353419376901773e+00
-6.340466084897805610e-01 -6.435613123546030101e-01 -3.057099208758687681e+00 -6.435613123546030101e-01 4.041829630449098154e+00 -4.628647955604056063e-01 -3.057099208758687681e+00 -4.628647955604056063e-01 -6.626183389633911069e+00
-5.765264439817153530e+00 -4.585871171129836665e-01 2.535349702110241132e+00 -4.585871171129836665e-01 -9.558458581017728051e+00 -3.988697659933481798e+00 2.535349702110241132e+00 -3.988697659933481798e+00 4.045646805468896545e+00
-9.103092123620957210e+00 5.013284087217497742e+00 2.727409779484622820e+00 5.013284087217497742e+00 2.868443351299916899e-01 2.214393806213343474e+00 2.727409779484622820e+00 2.214393806213343474e+00 -3.129781740726413464e+00
-3.435875706083840075e+00 1.721699301651838265e+00 -1.421498704725199458e+00 1.721699301651838265e+00 -4.069435199923565172e+00 2.640734246056751555e+00 -1.421498704725199458e+00 2.640734246056751555e+00 1.905216885087861023e+00
-1.506329959227064030e+00 5.403863601901368163e+00 -1.070263268327697803e+00 5.403863601901368163e+00 6.105465850637136427e+00 3.192695751418804129e+00 -1.070263268327697803e+00 3.192695751418804129e+00 1.219922378426208764e+00
-2.527387098233880192e+00 -3.263540457067430012e+00 2.725579168996703938e+00 -3.263540457067430012e+00 -6.183638817560932921e+00 -3.849743142005374263e+00 2.725579168996703938e+00 -3.849743142005374263e+00 6.218272236583524126e+00
-7.018374122093267609e+00 -3.481759275067659587e+00 3.891750395380924488e+00 -3.481759275067659587e+00 -9.807048810119519899e+00 -3.439133068818028605e+00 3.891750395380924488e+00 -3.439133068818028605e+00 7.731666591508309594e+00
-2.401451360530682866e+00 -2.437973891698554496e+00 -4.248430385496277495e+00 -2.437973891698554496e+00 3.143953302276543682e-01 4.000010159736090642e+00 -4.248430385496277495e+00 4.000010159736090642e+00 1.738311650425932697e+01
1.099908431335809844e+00 1.626591477896495164e+00 2.167134322548214254e+00 1.626591477896495164e+00 -3.161438167037257774e+00 3.637226920221121595e+00 2.167134322548214254e+00 3.637226920221121595e+00 4.606490943874391064e+00
1.907000946210852366e+00 -6.523426068063439942e+00 1.724234018829666537e+00 -6.523426068063439942e+00 -2.586319187316384660e+00 -4.758459541942417381e+00 1.724234018829666537e+00 -4.758459541942417381e+00 7.287679984916239917e+00
9.241897977310304935e-01 -2.421773294941055976e+00 -5.291216947872006138e-01 -2.421773294941055976e+00 -2.104079802029396706e+00 5.811020410053182594e+00 -5.291216947872006138e-01 5.811020410053182594e+00 -3.157508078103139937e+00
-2.482267436906917091e+00 -4.303061488419131497e-01 1.563575825776571060e+00 -4.303061488419131497e-01 -1.159417763380920796e+01 -2.757713780106745727e+00 1.563575825776571060e+00 -2.757713780106745727e+00 -4.067679817454523672e+00
-1.003984987209842750e+01 -2.323713259778517948e+00 3.496478493165248835e+00 -2.323713259778517948e+00 3.381798513174128828e+00 3.826677321020203859e+00 3.496478493165248835e+00 3.826677321020203859e+00 -3.514681403820669292e+00
-1.141301070693277708e+01 7.201124744863895977e+00 1.257333258651492702e+00 7.201124744863895977e+00 -8.529155017459260080e+00 -2.130675514749375221e+00 1.257333258651492702e+00 -2.130675514749375221e+00 -1.222281701980452828e+00
-3.013828535438532352e+00 -2.181165560820814697e+00 -9.626020783084148214e-01 -2.181165560820814697e+00 -6.446631558610794066e+00 6.187202268499016056e-02 -9.626020783084148214e-01 6.187202268499016056e-02 -3.750097749337697017e+00
-6.961137977171929947e+00 8.149963984358221225e+00 4.068218620866051793e+00 8.149963984358221225e+00 -5.985685164179259665e+00 -4.960943013341145846e-01 4.068218620866051793e+00 -4.960943013341145846e-01 -3.461180657488528656e+00
-4.080812034504606167e+00 -1.326561094900088777e+00 -4.968177710921100498e+00 -1.326561094900088777e+00 -3.937268538648995175e+00 1.890347133142631364e+00 -4.968177710921100498e+00 1.890347133142631364e+00 -7.717391090402030418e-01
1.291847693998213087e+00 -2.539933561019829256e+00 -1.828877588135176202e+00 -2.539933561019829256e+00 -3.484858203000941845e+00 -1.414877040602755986e+00 -1.828877588135176202e+00 -1.414877040602755986e+00 -7.166267060278037171e+00
1.094445300949405508e+00 -3.520692626437967210e+00 3.188164275436285333e+00 -3.520692626437967210e+00 -2.016456466760244037e+00 2.082458798148028922e+00 3.188164275436285333e+00 2.082458798148028922e+00 -1.764681521701280786e+00
6.780778027614700498e+00 -5.684755433154648152e+00 3.537205421571733233e+00 -5.684755433154648152e+00 -2.644795836562376934e+00 -1.139290748912039186e+00 3.537205421571733233e+00 -1.139290748912039186e+00 -5.928527445848211563e+00
5.185963401689408059e+00 -3.255726789783249142e+00 2.046828158963533539e+00 -3.255726789783249142e+00 -2.489655949915472455e+00 2.841532430208685511e+00 2.046828158963533539e+00 2.841532430208685511e+00 8.142359689206717377e+00
3.489038635681934508e+00 3.546417930752980840e+00 -4.550134956806863862e+00 3.546417930752980840e+00 -1.903234546528558280e+00 3.000548851271639950e-01 -4.550134956806863862e+00 3.000548851271639950e-01 4.121494365695297368e+00
-5.612950539437723485e+00 1.529680936617503484e+00 -4.265482190193924161e+00 1.529680936617503484e+00 3.691381917818212344e+00 2.446117435043963173e+00 -4.265482190193924161e+00 2.446117435043963173e+00 -4.883516107164869169e+00
-7.117925245006071489e-01 3.224672292386993044e-02 1.329491999275593805e+00 3.224672292386993044e-02 -3.486569671201849907e+00 2.566313906099300990e+00 1.329491999275593805e+00 2.566313906099300990e+00 6.675699420508899529e+00
-1.710064091569931444e+00 2.783978306430925809e+00 -2.554552575044546359e-01 2.783978306430925809e+00 -1.237649013417155430e+01 -3.477170596001817326e+00 -2.554552575044546359e-01 -3.477170596001817326e+00 -4.491509758559523724e-01
5.498106485914505015e+00 1.949935694450632084e+00 -1.312602457206001549e+00 1.949935694450632084e+00 1.393801169905921178e+01 4.254692104549062215e+00 -1.312602457206001549e+00 4.254692104549062215e+00 1.531058006452815867e+01
-4.621282781744627144e+00 7.690483286500147120e-01 -2.159713245061008813e+00 7.690483286500147120e-01 3.729177075255652341e+00 -3.417695622956220092e+00 -2.159713245061008813e+00 -3.417695622956220092e+00 2.912364640282448791e-01
-1.186803164959668200e+00 1.340409461589693874e-01 4.360027503679600791e+00 1.340409461589693874e-01 -4.688774896880566700e+00 1.725452975975531489e+00 4.360027503679600791e+00 1.725452975975531489e+00 7.536997024997953432e+00
-9.598234754317152451e+00 2.452642895351710539e+00 -1.563543134673890833e+00 2.452642895351710539e+00 -6.894268148486091263e+00 -9.933428254972378468e-01 -1.563543134673890833e+00 -9.933428254972378468e-01 -3.302938595070772809e+00
2.860774602142086565e+00 1.241616050204267907e+00 -5.750241009904730305e+00 1.241616050204267907e+00 1.062745824063931011e+01 -6.885072475818155624e+00 -5.750241009904730305e+00 -6.885072475818155624e+00 -5.048077941113860767e+00
4.504070931938566780e+00 -3.203710919008920133e+00 -1.328765770486751929e+00 -3.203710919008920133e+00 7.092492158527240242e+00 -3.056407053811114771e+00 -1.328765770486751929e+00 -3.056407053811114771e+00 6.531187006033406517e-02
2.131278477128645044e+00 -3.752246527036743551e+00 1.524561875048164872e+00 -3.752246527036743551e+00 -1.296013479569052107e+00 -4.577857892697791087e+00 1.524561875048164872e+00 -4.577857892697791087e+00 4.578278947221518180e+00
5.347323061030668789e+00 2.047173826133913632e+00 -4.798541124175315531e+00 2.047173826133913632e+00 2.931805172541863680e+00 1.405284062908599974e-01 -4.798541124175315531e+00 1.405284062908599974e-01 9.493638618685636743e+00
-5.078593845881179902e+00 3.402304643427916275e+00 -3.430997809539126475e+00 3.402304643427916275e+00 -3.243719783392629896e+00 -6.286828793514175340e-01 -3.430997809539126475e+00 -6.286828793514175340e-01 3.023661062143196965e+00
2.015321286357673713e+00 2.058294763737010535e-01 -1.024919477962838554e+00 2.058294763737010535e-01 -2.949371467333501862e+00 4.236502686073872148e+00 -1.024919477962838554e+00 4.236502686073872148e+00 2.378931234573284037e+00
6.678872529501947319e+00 -1.373553281354472189e+00 1.531091528245286826e+00 -1.373553281354472189e+00 -3.620414623246468011e+00 -4.230414821945966963e+00 1.531091528245286826e+00 -4.230414821945966963e+00 5.622189840020271667e+00
2.557967949134638541e+00 -4.178882639605120630e+00 1.835834437336471003e+00 -4.178882639605120630e+00 -6.057811707810324187e+00 1.520083848037933283e+00 1.835834437336471003e+00 1.520083848037933283e+00 6.774332086620636240e+00
1.004327923658176935e+01 3.408316791826161984e-01 -4.977732758959843573e-01 3.408316791826161984e-01 8.039407743038470500e+00 1.021093599502038929e+00 -4.977732758959843573e-01 1.021093599502038929e+00 -3.142822139814460680e+00
6.384842290372197970e-01 2.794326603692937616e-01 4.626417839213212702e+00 2.794326603692937616e-01 -3.312066236836029187e+00 2.708216391491057529e+00 4.626417839213212702e+00 2.708216391491057529e+00 9.481469128282515868e+00
-4.308655692720564367e+00 -4.659915197430942180e-01 -3.138636251131809551e+00 -4.659915197430942180e-01 -1.569673485376117616e+00 2.543610850763433184e+00 -3.138636251131809551e+00 2.543610850763433184e+00 -5.149152715835959349e+00
4.615773149549645460e+00 1.624911943903530331e-01 -1.805733435800839448e+00 1.624911943903530331e-01 1.001691019345442335e+01 -1.017408100622855249e-01 -1.805733435800839448e+00 -1.017408100622855249e-01 5.844005201164760521e+00
-1.957219254615511606e+00 -2.850780505574434187e+00 -9.112211955045953493e-01 -2.850780505574434187e+00 -1.264680194128425050e+01 -2.304759662005300580e+00 -9.112211955045953493e-01 -2.304759662005300580e+00 -9.363444060204106023e+00
5.260886211194616635e+00 6.379423283549376045e+00 6.905521121079171154e-01 6.379423283549376045e+00 -1.006389277844080254e+01 -2.161298494654265046e+00 6.905521121079171154e-01 -2.161298494654265046e+00 8.034749229421381145e+00
-1.215436210987830279e+00 -1.597636273841191556e+00 7.306160934141037178e-01 -1.597636273841191556e+00 -9.070219022881564896e+00 -2.302432988669693703e+00 7.306160934141037178e-01 -2.302432988669693703e+00 1.407235967297969292e+00
6.919547230015385075e+00 -3.761574365317852386e+00 -9.786186869436228619e-01 -3.761574365317852386e+00 3.275927601122358368e+00 -4.516051636434005090e+00 -9.786186869436228619e-01 -4.516051636434005090e+00 -3.609468361859724084e+00
2.027934343783260207e+00 -3.952925941758531181e+00 -3.341198222978480903e+00 -3.952925941758531181e+00 -7.712601081798569069e+00 5.342653010166394933e-01 -3.341198222978480903e+00 5.342653010166394933e-01 -2.022360868977866932e+00
6.117457017582651702e+00 -2.216036012483200590e+00 -2.172944685107938145e+00 -2.216036012483200590e+00 1.016645330358813482e+01 -2.921757583806618985e+00 -2.172944685107938145e+00 -2.921757583806618985e+00 3.616513779374804116e+00
4.494163800804712672e+00 2.102171948338499963e+00 -4.240075934895737753e+00 2.102171948338499963e+00 1.294490683112734430e+01 -5.586870871986494791e+00 -4.240075934895737753e+00 -5.586870871986494791e+00 1.052580608674597018e+00
-4.101547236956619713e+00 4.402467866632925997e+00 -5.706051033580021858e+00 4.402467866632925997e+00 4.199336198344290061e+00 -1.633353011059429871e+00 -5.706051033580021858e+00 -1.633353011059429871e+00 4.510079848959301918e-01
-6.703843357265708569e+00 1.050495952910334729e+01 -2.498479042102298653e+00 1.050495952910334729e+01 -4.044532600845728076e+00 -5.674471067941903257e+00 -2.498479042102298653e+00 -5.674471067941903257e+00 -1.448034648595815099e-01
-1.669861755478531107e+00 3.250400242463444389e+00 5.539091041774395485e+00 3.250400242463444389e+00 3.010946785609662779e+00 -3.376803592763160111e+00 5.539091041774395485e+00 -3.376803592763160111e+00 3.810022548531068143e+00
1.150434913557599304e+00 -2.062558010647726370e+00 3.032024648684354062e+00 -2.062558010647726370e+00 6.134201646084479265e+00 -7.147391500367750616e+00 3.032024648684354062e+00 -7.147391500367750616e+00 9.412390085861989109e-01
-9.781264176254248488e-01 1.963098819114324378e+00 -1.607511581618599750e-01 1.963098819114324378e+00 -3.693734540171632386e+00 4.934473313080359524e+00 -1.607511581618599750e-01 4.934473313080359524e+00 -6.310837136960644189e-01
1.845420009160498198e+00 -3.466321561244817495e+00 -3.054453317459418393e+00 -3.466321561244817495e+00 -7.625618079921134829e-01 -2.267855669862025803e+00 -3.054453317459418393e+00 -2.267855669862025803e+00 -2.282681375457835227e+00
1.025302495987842288e+00 -1.109782267497738006e+00 -8.984041506046468450e-01 -1.109782267497738006e+00 2.813315370927128356e+00 -2.023513887809938350e+00 -8.984041506046468450e-01 -2.023513887809938350e+00 -5.006255376288110348e+00
2.386104710570006393e+00 3.501405719340557443e+00 -6.014307384993421657e+00 3.501405719340557443e+00 -2.157847427156037057e+00 -2.085821293245415653e+00 -6.014307384993421657e+00 -2.085821293245415653e+00 2.501667500961052504e+00
3.460425037596476239e-01 -2.713910317250632698e+00 -1.848283453532071796e+00 -2.713910317250632698e+00 -4.141736723076708593e+00 4.598742318923116024e+00 -1.848283453532071796e+00 4.598742318923116024e+00 -1.604661881189157535e+00
-7.137792203512290712e+00 -1.520973946220769646e+00 -2.774174623636256776e+00 -1.520973946220769646e+00 -2.972624343198746910e+00 -5.089363374277856344e+00 -2.774174623636256776e+00 -5.089363374277856344e+00 1.412500400858207161e+00
9.589865379522430899e+00 -1.173481346663678704e-01 1.429860739869780684e+00 -1.173481346663678704e-01 -1.037366827813589465e-01 2.197267105297359802e+00 1.429860739869780684e+00 2.197267105297359802e+00 4.540756042674897408e+00
7.646607686651782032e+00 2.455456792443595493e+00 3.261011094499758567e+00 2.455456792443595493e+00 7.369132229047458127e-01 6.401908298124642904e+00 3.261011094499758567e+00 6.401908298124642904e+00 1.140901749820912059e+01
-3.429011501535772943e+00 8.061417456729962350e-01 2.049635667454401400e+00 8.061417456729962350e-01 -5.859495549107099244e+00 5.670055135885488928e-01 2.049635667454401400e+00 5.670055135885488928e-01 1.192928999455336481e+00
8.643971475981528485e+00 -7.841962407614661013e-01 -4.739777512735653175e+00 -7.841962407614661013e-01 -1.202797689488418698e+00 2.423710484868876858e+00 -4.739777512735653175e+00 2.423710484868876858e+00 6.338818853392971242e+00
-5.044192541649247241e-01 1.554646685666940087e+00 3.008174206219310864e+00 1.554646685666940087e+00 6.986711936129945677e+00 -2.976307814255193307e+00 3.008174206219310864e+00 -2.976307814255193307e+00 -1.599026519334013186e+00
4.870443446460851256e+00 9.099619766812491184e-01 3.511195609255341576e+00 9.099619766812491184e-01 -4.813246872529842513e+00 7.786178247905262140e+00 3.511195609255341576e+00 7.786178247905262140e+00 4.293539796703241151e+00
7.412449266664031811e+00 -4.131078584303580770e-01 -3.977017974315680604e+00 -4.131078584303580770e-01 -9.300689048759876343e+00 -3.306783612135137496e+00 -3.977017974315680604e+00 -3.306783612135137496e+00 -2.117884861787355799e-01
3.791268395280712689e+00 -4.192378812000761457e+00 3.227463634721118524e+00 -4.192378812000761457e+00 -3.865006046957774721e+00 1.106730024625001807e+00 3.227463634721118524e+00 1.106730024625001807e+00 9.965320336255053535e-01
2.526472284160099058e+00 2.385840870874390340e+00 2.125360583703356454e+00 2.385840870874390340e+00 -4.615742507547382356e-01 -3.714252233010322257e-01 2.125360583703356454e+00 -3.714252233010322257e-01 -1.206804428468586599e+00
-6.885655563748981578e+00 -2.736571898911555945e+00 4.387856094448896904e+00 -2.736571898911555945e+00 -1.180951967994251106e+01 -2.953799087156216086e+00 4.387856094448896904e+00 -2.953799087156216086e+00 4.189851280845855008e+00