8.007499827000000181e+00 0.000000000000000000e+00 0.000000000000000000e+00 -4.290689483000000415e+00 7.431692710000000091e+00 0.000000000000000000e+00 0.000000000000000000e+00 0.000000000000000000e+00 2.000000000000000000e+01
8.720653633999999599e+00 0.000000000000000000e+00 0.000000000000000000e+00 -4.220988854999999873e+00 7.310967672000000306e+00 0.000000000000000000e+00 0.000000000000000000e+00 0.000000000000000000e+00 2.000000000000000000e+01
8.542904897999999747e+00 0.000000000000000000e+00 0.000000000000000000e+00 -4.117289363000000257e+00 7.131354870000000012e+00 0.000000000000000000e+00 0.000000000000000000e+00 0.000000000000000000e+00 2.000000000000000000e+01
8.402564362999999759e+00 0.000000000000000000e+00 0.000000000000000000e+00 -4.015212294000000348e+00 6.954552188000000079e+00 0.000000000000000000e+00 0.000000000000000000e+00 0.000000000000000000e+00 2.000000000000000000e+01
7.763674648000000289e+00 0.000000000000000000e+00 0.000000000000000000e+00 2.938310707999999938e+00 7.687518095999999801e+00 0.000000000000000000e+00 0.000000000000000000e+00 0.000000000000000000e+00 2.000000000000000000e+01
7.524081130999999978e+00 0.000000000000000000e+00 0.000000000000000000e+00 2.735445476000000209e+00 7.143967315000000262e+00 0.000000000000000000e+00 0.000000000000000000e+00 0.000000000000000000e+00 2.000000000000000000e+01
8.542827449000000684e+00 0.000000000000000000e+00 0.000000000000000000e+00 2.797108949000000067e+00 7.318091176000000253e+00 0.000000000000000000e+00 0.000000000000000000e+00 0.000000000000000000e+00 2.000000000000000000e+01
7.332396525000000054e+00 0.000000000000000000e+00 0.000000000000000000e+00 2.922026149000000128e+00 7.644912717999999607e+00 0.000000000000000000e+00 0.000000000000000000e+00 0.000000000000000000e+00 2.000000000000000000e+01
8.086097257000000482e+00 0.000000000000000000e+00 0.000000000000000000e+00 -4.169833172999999782e+00 7.222363425000000170e+00 0.000000000000000000e+00 0.000000000000000000e+00 0.000000000000000000e+00 2.000000000000000000e+01
8.549602615999999600e+00 0.000000000000000000e+00 0.000000000000000000e+00 -4.066404270999999682e+00 7.043219299000000433e+00 0.000000000000000000e+00 0.000000000000000000e+00 0.000000000000000000e+00 2.000000000000000000e+01
8.092765795000000040e+00 0.000000000000000000e+00 0.000000000000000000e+00 -4.459553998999999713e+00 7.724174652000000307e+00 0.000000000000000000e+00 0.000000000000000000e+00 0.000000000000000000e+00 2.000000000000000000e+01
8.284438528000000801e+00 0.000000000000000000e+00 0.000000000000000000e+00 -4.253880224999999626e+00 7.367937200000000075e+00 0.000000000000000000e+00 0.000000000000000000e+00 0.000000000000000000e+00 2.000000000000000000e+01
8.086162875999999500e+00 0.000000000000000000e+00 0.000000000000000000e+00 2.850899411999999966e+00 7.458823454000000019e+00 0.000000000000000000e+00 0.000000000000000000e+00 0.000000000000000000e+00 2.000000000000000000e+01
8.090057136000000426e+00 0.000000000000000000e+00 0.000000000000000000e+00 -4.180306307000000388e+00 7.240503427000000158e+00 0.000000000000000000e+00 0.000000000000000000e+00 0.000000000000000000e+00 2.000000000000000000e+01
7.825820143999999701e+00 0.000000000000000000e+00 0.000000000000000000e+00 -4.301761214999999972e+00 7.450869512999999777e+00 0.000000000000000000e+00 0.000000000000000000e+00 0.000000000000000000e+00 2.000000000000000000e+01
7.333103104000000094e+00 0.000000000000000000e+00 0.000000000000000000e+00 2.613348869999999824e+00 7.095500240999999875e+00 0.000000000000000000e+00 0.000000000000000000e+00 0.000000000000000000e+00 2.000000000000000000e+01
8.606789791000000633e+00 0.000000000000000000e+00 0.000000000000000000e+00 -4.079313020999999928e+00 7.065577911000000100e+00 0.000000000000000000e+00 0.000000000000000000e+00 0.000000000000000000e+00 2.000000000000000000e+01
8.109325953000000808e+00 0.000000000000000000e+00 0.000000000000000000e+00 -3.698009769000000002e+00 6.405141258999999643e+00 0.000000000000000000e+00 0.000000000000000000e+00 0.000000000000000000e+00 2.000000000000000000e+01
6.956999956999999846e+00 0.000000000000000000e+00 0.000000000000000000e+00 2.604807502999999969e+00 6.802789463999999953e+00 0.000000000000000000e+00 0.000000000000000000e+00 0.000000000000000000e+00 2.000000000000000000e+01
8.019549465000000765e+00 0.000000000000000000e+00 0.000000000000000000e+00 -4.220649565999999631e+00 7.310380007000000013e+00 0.000000000000000000e+00 0.000000000000000000e+00 0.000000000000000000e+00 2.000000000000000000e+01
8.076701999999999160e+00 0.000000000000000000e+00 0.000000000000000000e+00 -4.171974223000000315e+00 7.226071833999999861e+00 0.000000000000000000e+00 0.000000000000000000e+00 0.000000000000000000e+00 2.000000000000000000e+01
7.887943285999999610e+00 0.000000000000000000e+00 0.000000000000000000e+00 -4.569265305000000055e+00 7.914200221999999840e+00 0.000000000000000000e+00 0.000000000000000000e+00 0.000000000000000000e+00 2.000000000000000000e+01
8.489953795999999997e+00 0.000000000000000000e+00 0.000000000000000000e+00 -4.393867257000000137e+00 7.610401868000000292e+00 0.000000000000000000e+00 0.000000000000000000e+00 0.000000000000000000e+00 2.000000000000000000e+01
7.255238193000000280e+00 0.000000000000000000e+00 0.000000000000000000e+00 2.425124913999999965e+00 6.523714527000000096e+00 0.000000000000000000e+00 0.000000000000000000e+00 0.000000000000000000e+00 2.000000000000000000e+01
8.489953795999999997e+00 0.000000000000000000e+00 0.000000000000000000e+00 -4.393867257000000137e+00 7.610401868000000292e+00 0.000000000000000000e+00 0.000000000000000000e+00 0.000000000000000000e+00 2.000000000000000000e+01
7.513993635000000282e+00 0.000000000000000000e+00 0.000000000000000000e+00 2.870484364999999816e+00 7.510063671000000163e+00 0.000000000000000000e+00 0.000000000000000000e+00 0.000000000000000000e+00 2.000000000000000000e+01
8.574863844999999429e+00 0.000000000000000000e+00 0.000000000000000000e+00 -4.174598115000000220e+00 7.230616548000000421e+00 0.000000000000000000e+00 0.000000000000000000e+00 0.000000000000000000e+00 2.000000000000000000e+01
9.239625957999999528e+00 0.000000000000000000e+00 0.000000000000000000e+00 -3.961293234000000218e+00 6.861161629999999789e+00 0.000000000000000000e+00 0.000000000000000000e+00 0.000000000000000000e+00 2.000000000000000000e+01
7.969232502999999745e+00 0.000000000000000000e+00 0.000000000000000000e+00 -4.156401003000000038e+00 7.199098221999999936e+00 0.000000000000000000e+00 0.000000000000000000e+00 0.000000000000000000e+00 2.000000000000000000e+01
8.451370367999999189e+00 0.000000000000000000e+00 0.000000000000000000e+00 -4.086990431000000257e+00 7.078875576999999808e+00 0.000000000000000000e+00 0.000000000000000000e+00 0.000000000000000000e+00 2.000000000000000000e+01
7.971414086000000232e+00 0.000000000000000000e+00 0.000000000000000000e+00 -4.326680694000000216e+00 7.494031320000000385e+00 0.000000000000000000e+00 0.000000000000000000e+00 0.000000000000000000e+00 2.000000000000000000e+01
8.023785110000000387e+00 0.000000000000000000e+00 0.000000000000000000e+00 -4.389273818000000382e+00 7.602445797999999755e+00 0.000000000000000000e+00 0.000000000000000000e+00 0.000000000000000000e+00 2.000000000000000000e+01
9.170360924000000580e+00 0.000000000000000000e+00 0.000000000000000000e+00 -3.985791750999999827e+00 6.903594307999999735e+00 0.000000000000000000e+00 0.000000000000000000e+00 0.000000000000000000e+00 2.000000000000000000e+01
8.461286415000000005e+00 0.000000000000000000e+00 0.000000000000000000e+00 -4.113520754999999696e+00 7.124827448999999646e+00 0.000000000000000000e+00 0.000000000000000000e+00 0.000000000000000000e+00 2.000000000000000000e+01
8.338055276000000404e+00 0.000000000000000000e+00 0.000000000000000000e+00 2.798092264000000107e+00 7.320663826999999735e+00 0.000000000000000000e+00 0.000000000000000000e+00 0.000000000000000000e+00 2.000000000000000000e+01
7.646920703000000152e+00 0.000000000000000000e+00 0.000000000000000000e+00 2.553136395000000114e+00 6.667843727000000165e+00 0.000000000000000000e+00 0.000000000000000000e+00 0.000000000000000000e+00 2.000000000000000000e+01
8.606842386000000289e+00 0.000000000000000000e+00 0.000000000000000000e+00 -3.954686044999999872e+00 6.849717642999999967e+00 0.000000000000000000e+00 0.000000000000000000e+00 0.000000000000000000e+00 2.000000000000000000e+01
8.770031459000000140e+00 0.000000000000000000e+00 0.000000000000000000e+00 -4.044626990000000255e+00 7.005499939999999981e+00 0.000000000000000000e+00 0.000000000000000000e+00 0.000000000000000000e+00 2.000000000000000000e+01
7.884663865000000271e+00 0.000000000000000000e+00 0.000000000000000000e+00 2.618654332000000196e+00 6.838952236999999990e+00 0.000000000000000000e+00 0.000000000000000000e+00 0.000000000000000000e+00 2.000000000000000000e+01
8.770031459000000140e+00 0.000000000000000000e+00 0.000000000000000000e+00 -4.044626990000000255e+00 7.005499939999999981e+00 0.000000000000000000e+00 0.000000000000000000e+00 0.000000000000000000e+00 2.000000000000000000e+01
8.253067386999999755e+00 0.000000000000000000e+00 0.000000000000000000e+00 -3.949760311999999995e+00 6.841186021999999589e+00 0.000000000000000000e+00 0.000000000000000000e+00 0.000000000000000000e+00 2.000000000000000000e+01
7.230455794000000047e+00 0.000000000000000000e+00 0.000000000000000000e+00 2.824884544000000108e+00 7.669840484999999930e+00 0.000000000000000000e+00 0.000000000000000000e+00 0.000000000000000000e+00 2.000000000000000000e+01
8.520845423000000807e+00 0.000000000000000000e+00 0.000000000000000000e+00 -3.619469139000000002e+00 6.269104889000000291e+00 0.000000000000000000e+00 0.000000000000000000e+00 0.000000000000000000e+00 2.000000000000000000e+01
7.936190088000000031e+00 0.000000000000000000e+00 0.000000000000000000e+00 -4.158920007999999946e+00 7.203461267999999862e+00 0.000000000000000000e+00 0.000000000000000000e+00 0.000000000000000000e+00 2.000000000000000000e+01
8.476424506000000747e+00 0.000000000000000000e+00 0.000000000000000000e+00 -4.011123962000000098e+00 6.947470989000000152e+00 0.000000000000000000e+00 0.000000000000000000e+00 0.000000000000000000e+00 2.000000000000000000e+01
6.866018627999999957e+00 0.000000000000000000e+00 0.000000000000000000e+00 2.808728714999999987e+00 7.335355908999999563e+00 0.000000000000000000e+00 0.000000000000000000e+00 0.000000000000000000e+00 2.000000000000000000e+01
7.668952342999999949e+00 0.000000000000000000e+00 0.000000000000000000e+00 -4.528125006999999869e+00 7.842943130000000096e+00 0.000000000000000000e+00 0.000000000000000000e+00 0.000000000000000000e+00 2.000000000000000000e+01
8.486556324000000373e+00 0.000000000000000000e+00 0.000000000000000000e+00 -4.311216314000000160e+00 7.467246226000000320e+00 0.000000000000000000e+00 0.000000000000000000e+00 0.000000000000000000e+00 2.000000000000000000e+01
8.361354048999999122e+00 0.000000000000000000e+00 0.000000000000000000e+00 -3.927763119000000192e+00 6.803085763000000341e+00 0.000000000000000000e+00 0.000000000000000000e+00 0.000000000000000000e+00 2.000000000000000000e+01
8.441269284000000539e+00 0.000000000000000000e+00 0.000000000000000000e+00 -4.064742499000000286e+00 7.040341025000000030e+00 0.000000000000000000e+00 0.000000000000000000e+00 0.000000000000000000e+00 2.000000000000000000e+01
8.583691946000000073e+00 0.000000000000000000e+00 0.000000000000000000e+00 -4.092189428000000184e+00 7.087880504000000137e+00 0.000000000000000000e+00 0.000000000000000000e+00 0.000000000000000000e+00 2.000000000000000000e+01
7.717030411999999728e+00 0.000000000000000000e+00 0.000000000000000000e+00 2.900035507000000123e+00 7.587378482000000091e+00 0.000000000000000000e+00 0.000000000000000000e+00 0.000000000000000000e+00 2.000000000000000000e+01
6.925696871999999615e+00 0.000000000000000000e+00 0.000000000000000000e+00 2.680740543000000198e+00 7.001098354999999884e+00 0.000000000000000000e+00 0.000000000000000000e+00 0.000000000000000000e+00 2.000000000000000000e+01
8.426968631999999459e+00 0.000000000000000000e+00 0.000000000000000000e+00 -4.188354287000000120e+00 7.254442938000000396e+00 0.000000000000000000e+00 0.000000000000000000e+00 0.000000000000000000e+00 2.000000000000000000e+01
7.980772546999999939e+00 0.000000000000000000e+00 0.000000000000000000e+00 -4.068604485999999909e+00 7.047030183999999586e+00 0.000000000000000000e+00 0.000000000000000000e+00 0.000000000000000000e+00 2.000000000000000000e+01
7.998692624000000251e+00 0.000000000000000000e+00 0.000000000000000000e+00 -4.327180965000000157e+00 7.494897813999999769e+00 0.000000000000000000e+00 0.000000000000000000e+00 0.000000000000000000e+00 2.000000000000000000e+01
8.359623832000000476e+00 0.000000000000000000e+00 0.000000000000000000e+00 -4.245764498999999859e+00 7.353880349999999844e+00 0.000000000000000000e+00 0.000000000000000000e+00 0.000000000000000000e+00 2.000000000000000000e+01
8.549429797000000164e+00 0.000000000000000000e+00 0.000000000000000000e+00 -4.446745089000000206e+00 7.701988968000000213e+00 0.000000000000000000e+00 0.000000000000000000e+00 0.000000000000000000e+00 2.000000000000000000e+01
8.248994877999999531e+00 0.000000000000000000e+00 0.000000000000000000e+00 -4.157963393000000174e+00 7.201804361999999848e+00 0.000000000000000000e+00 0.000000000000000000e+00 0.000000000000000000e+00 2.000000000000000000e+01
7.308484634000000035e+00 0.000000000000000000e+00 0.000000000000000000e+00 2.499799486000000126e+00 6.528547535000000401e+00 0.000000000000000000e+00 0.000000000000000000e+00 0.000000000000000000e+00 2.000000000000000000e+01
