2.941669999999999785e+00 1.153750000000000053e+00 1.168009999999999948e+01 3.833599999999999786e-01 5.538050000000000139e+00 1.110379999999999967e+01 6.827139999999999986e+00 1.654730000000000034e+00 1.181039999999999957e+01 4.568990000000000329e+00 5.336850000000000094e+00 1.211229999999999940e+01 -2.901310000000000056e+00 7.154880000000000351e+00 1.494769999999999932e+01 4.614099999999999646e+00 4.324449999999999683e+00 1.774670000000000059e+01 1.463899999999999924e-01 1.733940000000000037e+00 1.865149999999999864e+01 2.737470000000000070e+00 2.839710000000000178e+00 1.478090000000000082e+01 7.359999999999999876e-01 5.560999999999999971e-02 1.065179999999999971e+01 -2.041069999999999940e+00 4.195350000000000357e+00 1.016380000000000017e+01 4.888279999999999959e+00 3.133099999999999774e-01 9.864100000000000534e+00 2.358890000000000153e+00 3.588459999999999983e+00 1.086519999999999975e+01 4.588900000000000201e-01 2.005910000000000082e+00 1.434110000000000085e+01 -8.567799999999999860e-01 6.285919999999999952e+00 1.329069999999999929e+01 4.878099999999999881e+00 1.787910000000000110e+00 1.381470000000000020e+01 3.035550000000000193e+00 5.874679999999999680e+00 1.424259999999999948e+01 3.569669999999999899e+00 6.171000000000000096e-02 1.719369999999999976e+01 2.313470000000000137e+00 3.092049999999999965e+00 1.755379999999999896e+01 -2.948770000000000113e+00 6.771169999999999689e+00 1.770189999999999841e+01 5.598080000000000389e+00 1.989840000000000053e+00 1.864399999999999835e+01
2.158180000000000209e+00 1.270909999999999984e+00 1.227449999999999974e+01 -1.154799999999999993e-01 5.106720000000000148e+00 1.097049999999999947e+01 6.723060000000000258e+00 7.394199999999999662e-01 1.219110000000000049e+01 4.404539999999999900e+00 4.490120000000000111e+00 1.207049999999999912e+01 7.187900000000000400e-01 4.644300000000000095e-01 1.591779999999999973e+01 -2.297800000000000065e+00 4.036129999999999995e+00 1.564509999999999934e+01 4.317239999999999966e+00 1.718899999999999872e-01 1.586320000000000086e+01 2.041049999999999809e+00 4.053530000000000300e+00 1.524259999999999948e+01 4.497410000000000352e+00 6.900890000000000413e+00 1.094139999999999979e+01 6.654560000000000031e+00 3.390010000000000190e+00 1.094909999999999961e+01 4.480959999999999610e+00 2.424999999999999933e-01 1.080240000000000045e+01 2.126180000000000181e+00 3.625220000000000109e+00 1.084740000000000038e+01 6.499999999999999702e-03 2.684619999999999784e+00 1.454940000000000033e+01 -1.870719999999999938e+00 6.288820000000000299e+00 1.421209999999999951e+01 4.274370000000000225e+00 2.642409999999999926e+00 1.415900000000000070e+01 2.562819999999999876e+00 6.445429999999999993e+00 1.428599999999999959e+01 3.708660000000000068e+00 6.500589999999999868e+00 1.800939999999999941e+01 5.862619999999999720e+00 4.037250000000000227e+00 1.802710000000000079e+01 -2.212300000000000100e-01 5.392820000000000391e+00 1.762709999999999866e+01 3.621049999999999880e+00 4.259140000000000370e+00 1.776849999999999952e+01
2.582190000000000207e+00 1.445449999999999902e+00 1.207169999999999987e+01 -3.051400000000000223e-01 4.573900000000000077e+00 1.215070000000000050e+01 6.675530000000000186e+00 7.601900000000000324e-01 1.211769999999999925e+01 4.553160000000000096e+00 4.811300000000000132e+00 1.135650000000000048e+01 4.267879999999999896e+00 6.713440000000000296e+00 1.598489999999999966e+01 -1.595909999999999940e+00 4.002110000000000056e+00 1.579190000000000005e+01 2.646800000000000264e-01 7.024230000000000196e+00 1.567759999999999998e+01 2.247450000000000170e+00 3.186280000000000001e+00 1.606230000000000047e+01 3.377399999999999847e-01 6.364000000000000212e-02 1.089499999999999957e+01 6.445090000000000430e+00 3.205909999999999815e+00 1.050130000000000052e+01 2.596700000000000119e-01 6.937689999999999912e+00 1.095359999999999978e+01 2.171580000000000066e+00 3.738620000000000054e+00 1.078519999999999968e+01 4.009699999999999931e-01 2.229579999999999895e+00 1.428720000000000034e+01 -2.143780000000000019e+00 5.956520000000000259e+00 1.398690000000000033e+01 4.547100000000000364e+00 2.107969999999999899e+00 1.402829999999999977e+01 2.093640000000000168e+00 5.719619999999999926e+00 1.405519999999999925e+01 -2.077690000000000037e+00 6.157469999999999999e+00 1.846270000000000167e+01 5.148550000000000182e+00 3.483760000000000190e+00 1.761880000000000024e+01 2.881940000000000168e+00 1.549120000000000053e+00 1.767849999999999966e+01 1.004869999999999930e+00 5.166520000000000223e+00 1.739920000000000044e+01
2.445949999999999847e+00 1.391100000000000003e+00 1.127529999999999966e+01 -3.012699999999999823e-01 4.738209999999999589e+00 1.220899999999999963e+01 6.816130000000000244e+00 1.072770000000000001e+00 1.191750000000000043e+01 4.006759999999999877e+00 4.420539999999999914e+00 1.187400000000000055e+01 4.344899999999999984e+00 6.446699999999999875e+00 1.526590000000000025e+01 5.731950000000000323e+00 3.404570000000000096e+00 1.566130000000000067e+01 4.321609999999999729e+00 2.621499999999999941e-01 1.660389999999999944e+01 1.952649999999999997e+00 3.504970000000000141e+00 1.543249999999999922e+01 -3.651759999999999895e+00 6.792659999999999698e+00 1.089630000000000010e+01 -2.017419999999999991e+00 3.516760000000000108e+00 1.064930000000000021e+01 4.986099999999999977e-01 6.924830000000000041e+00 1.072439999999999927e+01 2.536589999999999900e+00 3.518409999999999815e+00 1.003850000000000087e+01 -4.185099999999999931e-01 2.176470000000000127e+00 1.410330000000000084e+01 -1.399229999999999974e+00 5.479350000000000165e+00 1.483029999999999937e+01 3.911620000000000097e+00 2.414800000000000058e+00 1.388219999999999921e+01 2.310509999999999842e+00 5.730800000000000338e+00 1.355940000000000012e+01 -1.945270000000000055e+00 6.067370000000000374e+00 1.901599999999999824e+01 4.209240000000000315e+00 3.248810000000000198e+00 1.787130000000000152e+01 -1.000000000000000056e-01 6.874450000000000394e+00 1.896799999999999997e+01 2.933530000000000193e+00 5.572300000000000253e+00 1.756490000000000151e+01
2.662100000000000133e+00 7.836600000000000232e-01 7.901390000000000136e+00 6.057310000000000194e+00 5.503280000000000172e+00 1.358590000000000053e+01 6.551560000000000272e+00 2.609539999999999971e+00 1.104229999999999912e+01 3.247110000000000163e+00 1.701319999999999943e+00 1.315649999999999942e+01 4.433860000000000134e+00 7.612659999999999982e+00 1.638879999999999981e+01 5.633440000000000225e+00 3.510810000000000208e+00 1.712600000000000122e+01 7.875309999999999810e+00 7.514050000000000118e+00 1.659789999999999921e+01 2.311160000000000103e+00 4.242729999999999890e+00 1.664480000000000004e+01 3.283189999999999831e+00 4.234999999999999876e-02 1.043750000000000000e+01 8.757700000000000484e-01 8.371300000000000407e-01 1.021470000000000056e+01 4.230299999999999727e+00 2.412659999999999805e+00 9.937530000000000641e+00 7.214409999999999989e+00 5.282180000000000319e+00 1.136609999999999943e+01 6.139219999999999899e+00 3.366709999999999869e+00 1.469630000000000081e+01 4.279690000000000438e+00 7.455400000000000027e+00 1.364250000000000007e+01 2.383480000000000043e+00 3.932710000000000150e+00 1.410350000000000037e+01 7.929509999999999614e+00 7.318830000000000169e+00 1.376600000000000001e+01 3.236959999999999837e+00 1.792019999999999946e+00 1.750489999999999924e+01 6.953039999999999665e+00 1.297630000000000061e+00 1.702139999999999986e+01 4.101700000000000124e+00 5.369950000000000223e+00 1.811039999999999850e+01 7.867720000000000269e+00 5.341590000000000060e+00 1.809410000000000096e+01
6.719820000000000348e+00 6.373260000000000147e+00 1.022600000000000087e+01 8.897019999999999484e+00 3.871640000000000192e+00 1.470069999999999943e+01 2.855410000000000004e+00 6.469219999999999970e+00 9.196889999999999787e+00 2.671009999999999884e+00 3.246010000000000062e+00 1.018699999999999939e+01 7.572029999999999816e+00 2.035099999999999965e-01 1.608689999999999998e+01 7.037609999999999921e+00 1.020119999999999916e+00 1.263920000000000066e+01 3.768450000000000077e+00 3.065200000000000147e-01 1.529620000000000068e+01 7.480019999999999669e+00 5.175690000000000346e+00 2.128309999999999924e+00 4.297640000000000349e+00 5.216820000000000235e+00 1.126159999999999961e+01 5.741369999999999862e+00 1.455060000000000020e+00 1.007719999999999949e+01 8.410510000000000375e+00 4.745499999999999829e+00 8.395569999999999311e+00 1.859639999999999960e+00 1.268710000000000004e+00 8.811730000000000729e+00 4.239630000000000010e+00 5.538739999999999775e+00 1.507230000000000025e+01 1.875289999999999901e+00 2.040570000000000217e+00 1.253870000000000040e+01 7.956739999999999924e+00 6.510270000000000223e+00 1.275389999999999979e+01 8.046219999999999928e+00 5.838669999999999582e+00 1.681820000000000093e+01 6.232549999999999812e+00 2.359480000000000022e+00 1.486589999999999989e+01 1.904970000000000052e+00 3.767869999999999830e+00 3.631450000000000067e+00 2.637370000000000214e+00 2.508379999999999832e+00 1.641619999999999990e+01 1.536680000000000046e+00 3.297969999999999846e+00 1.133219999999999894e+00
2.812530000000000197e+00 1.078089999999999993e+00 8.616039999999999921e+00 6.934720000000000439e+00 5.584900000000000198e+00 1.309609999999999985e+01 7.094529999999999781e+00 2.013990000000000169e+00 1.070539999999999914e+01 3.818799999999999972e+00 1.843560000000000088e+00 1.367389999999999972e+01 8.934800000000000519e-01 2.409900000000000098e-01 1.631980000000000075e+01 6.331900000000000084e+00 3.272759999999999891e+00 1.694650000000000034e+01 8.370400000000000063e+00 7.190319999999999823e+00 1.654179999999999851e+01 2.203199999999999825e+00 3.691990000000000105e+00 1.610849999999999937e+01 4.465740000000000265e+00 5.209500000000000242e-01 1.078519999999999968e+01 8.626700000000000479e-01 1.122540000000000093e+00 1.113540000000000063e+01 4.223869999999999791e+00 2.958699999999999886e+00 1.025270000000000081e+01 6.378800000000000026e+00 4.557990000000000208e+00 1.073969999999999914e+01 6.622309999999999697e+00 3.195650000000000102e+00 1.444790000000000063e+01 4.808440000000000047e+00 7.006160000000000387e+00 1.387359999999999971e+01 2.216489999999999849e+00 3.904949999999999921e+00 1.371199999999999974e+01 5.780870000000000175e+00 1.551599999999999924e-01 1.389809999999999945e+01 3.180689999999999795e+00 1.295039999999999969e+00 1.720870000000000033e+01 7.100920000000000343e+00 8.111099999999999977e-01 1.822380000000000067e+01 4.135830000000000339e+00 4.428130000000000344e+00 1.759459999999999980e+01 8.553509999999999280e+00 4.507310000000000372e+00 1.765619999999999834e+01
3.243479999999999919e+00 7.407200000000000450e-01 8.590569999999999595e+00 5.492169999999999774e+00 5.748850000000000016e+00 1.209340000000000082e+01 6.672259999999999636e+00 2.297600000000000087e+00 1.083820000000000050e+01 3.094359999999999999e+00 1.758969999999999922e+00 1.386919999999999931e+01 5.167399999999999771e-01 2.968000000000000083e-01 1.670880000000000010e+01 7.010110000000000063e+00 3.848689999999999944e+00 1.586849999999999916e+01 6.830440000000000289e+00 7.493459999999999788e+00 1.698310000000000031e+01 3.302859999999999907e+00 3.953329999999999789e+00 1.755180000000000007e+01 1.765309999999999935e+00 1.198239999999999972e+00 1.136930000000000085e+01 9.742729999999999890e+00 7.590900000000000425e+00 9.388780000000000570e+00 7.594509999999999650e+00 7.523789999999999978e+00 1.062579999999999991e+01 5.814059999999999562e+00 4.599310000000000009e+00 9.755110000000000170e+00 5.846180000000000376e+00 3.427550000000000097e+00 1.333300000000000018e+01 8.135400000000000409e-01 3.176599999999999979e-01 1.414739999999999931e+01 2.188709999999999933e+00 4.129699999999999704e+00 1.500839999999999996e+01 7.565520000000000245e+00 7.214599999999999902e+00 1.429620000000000068e+01 2.189420000000000144e+00 1.503409999999999913e+00 1.820329999999999870e+01 5.852389999999999759e+00 2.060989999999999878e+00 1.738800000000000168e+01 5.280380000000000074e+00 5.604440000000000310e+00 1.722690000000000055e+01 9.040889999999999205e+00 5.963460000000000427e+00 1.806530000000000058e+01
1.871909999999999963e+00 6.515199999999999880e-01 1.216879999999999917e+01 9.263000000000000123e-01 5.051260000000000083e+00 1.170159999999999911e+01 5.877060000000000173e+00 1.718660000000000077e+00 1.223780000000000001e+01 4.484239999999999782e+00 4.835259999999999891e+00 1.087839999999999918e+01 -1.909700000000000009e-01 9.082799999999999763e-01 1.912239999999999895e+01 -1.204599999999999976e-01 5.213599999999999568e+00 1.770370000000000132e+01 -1.040620000000000100e+00 7.141969999999999708e+00 1.476999999999999957e+01 5.475900000000000212e-01 3.243879999999999875e+00 1.529250000000000043e+01 -4.040779999999999816e+00 7.158330000000000304e+00 1.032160000000000011e+01 -1.548480000000000079e+00 3.541949999999999932e+00 1.005840000000000067e+01 4.192719999999999558e+00 6.514000000000000346e-02 1.095940000000000047e+01 2.254890000000000061e+00 3.096810000000000063e+00 1.053519999999999968e+01 -1.620900000000000118e-01 1.167610000000000037e+00 1.378180000000000049e+01 -3.097329999999999917e+00 5.657700000000000173e+00 1.340930000000000000e+01 4.008469999999999978e+00 2.206049999999999844e+00 1.421020000000000039e+01 1.288640000000000008e+00 5.868109999999999715e+00 1.426360000000000028e+01 3.849940000000000140e+00 6.153419999999999668e+00 1.750189999999999912e+01 -1.218739999999999934e+00 3.111590000000000078e+00 1.667419999999999902e+01 2.612470000000000070e+00 1.545600000000000029e-01 1.724309999999999832e+01 2.190960000000000019e+00 4.243809999999999860e+00 1.785379999999999967e+01
1.465540000000000065e+00 8.159800000000000386e-01 1.230659999999999954e+01 -7.181699999999999751e-01 4.026489999999999903e+00 1.118849999999999945e+01 6.190150000000000041e+00 3.835299999999999820e-01 1.228550000000000075e+01 3.268879999999999786e+00 4.271779999999999688e+00 1.171129999999999960e+01 1.901370000000000005e+00 5.815459999999999852e+00 1.588790000000000013e+01 -2.037889999999999979e+00 4.500849999999999795e+00 1.418640000000000079e+01 1.910609999999999919e+00 2.759400000000000186e-01 1.650300000000000011e+01 -2.964700000000000113e-01 3.523810000000000109e+00 1.751079999999999970e+01 3.969129999999999825e+00 6.558460000000000178e+00 1.081240000000000023e+01 5.565279999999999561e+00 2.597189999999999888e+00 1.082750000000000057e+01 -5.592099999999999849e-01 6.436790000000000234e+00 1.076640000000000086e+01 1.319450000000000012e+00 2.747669999999999835e+00 1.037040000000000006e+01 6.822899999999999521e-01 4.117110000000000269e+00 1.425569999999999915e+01 -3.544770000000000199e+00 6.842249999999999943e+00 1.445390000000000086e+01 3.253849999999999909e+00 3.185830000000000162e+00 1.394469999999999921e+01 5.821799999999999642e+00 1.028820000000000068e+00 1.464070000000000071e+01 -3.212000000000000272e-02 7.831700000000000328e-01 1.803399999999999892e+01 3.221540000000000070e+00 2.828399999999999803e+00 1.700420000000000087e+01 2.157499999999999973e-01 6.471680000000000099e+00 1.821969999999999956e+01 5.550720000000000098e+00 4.209080000000000155e+00 1.680000000000000071e+01
1.576030000000000042e+00 1.696439999999999948e+00 1.219369999999999976e+01 3.467500000000000027e-01 5.211090000000000444e+00 1.178059999999999974e+01 5.734250000000000291e+00 1.849369999999999958e+00 1.137260000000000026e+01 4.127229999999999954e+00 5.392660000000000231e+00 1.177599999999999980e+01 3.709290000000000198e+00 7.099879999999999747e+00 1.626210000000000022e+01 5.649409999999999599e+00 3.784289999999999932e+00 1.567789999999999928e+01 -4.915300000000000225e-01 7.331389999999999851e+00 1.471189999999999998e+01 2.141329999999999956e+00 3.084060000000000024e+00 1.648160000000000025e+01 7.736449999999999605e+00 2.619799999999999907e-01 1.126169999999999938e+01 -1.977819999999999911e+00 4.330949999999999633e+00 1.040830000000000055e+01 -5.867900000000000338e-01 7.338790000000000369e+00 1.062620000000000076e+01 2.058180000000000121e+00 3.713709999999999845e+00 1.044420000000000037e+01 3.292700000000000071e-01 2.319510000000000183e+00 1.487390000000000079e+01 -2.737550000000000150e+00 6.118249999999999744e+00 1.396780000000000044e+01 3.907410000000000050e+00 2.225789999999999935e+00 1.339269999999999960e+01 1.435189999999999966e+00 5.584220000000000184e+00 1.419870000000000054e+01 6.395699999999999719e+00 1.003500000000000059e+00 1.801190000000000069e+01 -1.192280000000000006e+00 2.973199999999999843e+00 1.963700000000000045e+01 3.924650000000000194e+00 1.498799999999999910e+00 1.697390000000000043e+01 2.120950000000000113e+00 4.692619999999999791e+00 1.826079999999999970e+01
2.395189999999999930e+00 1.225109999999999921e+00 1.133440000000000047e+01 -6.218700000000000339e-01 4.809879999999999711e+00 1.167559999999999931e+01 6.434129999999999683e+00 1.389790000000000081e+00 1.245989999999999931e+01 3.807690000000000019e+00 4.651749999999999829e+00 1.204030000000000022e+01 4.250099999999999989e-01 6.327500000000000346e-01 1.525130000000000052e+01 5.680889999999999773e+00 4.339220000000000077e+00 1.683840000000000003e+01 -1.717799999999999883e-01 7.242099999999999760e+00 1.544599999999999973e+01 2.063400000000000123e+00 3.732590000000000074e+00 1.531329999999999991e+01 -4.162749999999999950e+00 7.340970000000000439e+00 1.121170000000000044e+01 5.821679999999999744e+00 3.451020000000000199e+00 1.081639999999999979e+01 2.144399999999999917e-01 7.228139999999999787e+00 1.079860000000000042e+01 1.775810000000000111e+00 3.718609999999999971e+00 1.048230000000000040e+01 -4.475899999999999879e-01 3.110889999999999933e+00 1.440629999999999988e+01 -2.198170000000000179e+00 6.050469999999999793e+00 1.437320000000000064e+01 3.689670000000000005e+00 2.405190000000000161e+00 1.362979999999999947e+01 2.119959999999999845e+00 6.588709999999999845e+00 1.458789999999999942e+01 1.110020000000000007e+00 7.760599999999999721e-01 1.796959999999999980e+01 6.896740000000000315e+00 1.960040000000000004e+00 1.789600000000000080e+01 -1.803919999999999968e+00 6.138889999999999958e+00 1.817360000000000042e+01 3.138500000000000068e+00 3.762610000000000010e+00 1.758040000000000092e+01
8.255969999999999587e+00 6.218460000000000321e+00 8.392319999999999780e+00 7.888010000000000410e+00 6.023039999999999949e+00 1.192109999999999914e+01 7.165750000000000064e+00 1.943109999999999893e+00 1.209919999999999973e+01 2.225550000000000139e+00 1.960830000000000073e+00 1.366259999999999941e+01 2.989160000000000039e+00 7.406509999999999927e+00 1.654129999999999967e+01 6.739080000000000403e+00 3.874159999999999826e+00 1.534849999999999959e+01 7.347780000000000200e+00 7.376669999999999838e+00 1.704139999999999944e+01 2.294979999999999798e+00 3.474540000000000184e+00 1.742989999999999995e+01 2.329600000000000115e+00 2.433949999999999836e+00 1.099600000000000044e+01 7.134710000000000107e+00 5.010099999999999554e-01 9.981220000000000425e+00 2.090980000000000061e+00 4.863839999999999719e+00 1.079299999999999926e+01 3.268029999999999990e+00 2.691899999999999848e-01 1.050430000000000064e+01 5.969730000000000203e+00 3.983389999999999986e+00 1.291890000000000072e+01 3.670300000000000229e-01 2.166999999999999829e-02 1.387320000000000064e+01 9.434369999999999479e+00 4.234840000000000160e+00 1.481700000000000017e+01 4.388300000000000090e+00 5.471099999999999852e-01 1.439080000000000048e+01 2.411770000000000191e+00 8.285200000000000342e-01 1.812869999999999848e+01 6.620739999999999625e+00 1.841679999999999984e+00 1.726820000000000022e+01 5.036889999999999645e+00 5.299750000000000405e+00 1.672810000000000130e+01 9.286580000000000723e+00 5.803480000000000416e+00 1.850580000000000069e+01
1.824060000000000015e+00 7.280999999999999694e-01 1.231359999999999921e+01 -1.681699999999999862e-01 4.994399999999999729e+00 1.144539999999999935e+01 6.158500000000000085e+00 1.424530000000000074e+00 1.212390000000000079e+01 3.758560000000000123e+00 4.473019999999999996e+00 1.193810000000000038e+01 -3.872009999999999952e+00 7.171059999999999768e+00 1.533409999999999940e+01 5.838510000000000311e+00 2.987200000000000077e+00 1.622759999999999891e+01 -5.886799999999999811e-01 6.860899999999999999e+00 1.668029999999999902e+01 2.277950000000000141e+00 4.316740000000000244e+00 1.551120000000000054e+01 3.770880000000000010e+00 6.982470000000000176e+00 1.086969999999999992e+01 5.849610000000000198e+00 3.653970000000000162e+00 1.048959999999999937e+01 4.127690000000000303e+00 3.413399999999999768e-01 1.081830000000000069e+01 1.645520000000000094e+00 3.201420000000000154e+00 1.100179999999999936e+01 1.361999999999999877e-01 2.315479999999999983e+00 1.423799999999999955e+01 -2.057259999999999867e+00 5.893699999999999939e+00 1.392210000000000036e+01 3.896780000000000133e+00 2.595180000000000042e+00 1.403739999999999988e+01 1.728189999999999893e+00 6.600170000000000314e+00 1.429729999999999990e+01 3.600200000000000067e+00 5.542180000000000106e+00 1.721950000000000003e+01 -9.268300000000000427e-01 4.879579999999999806e+00 1.779860000000000042e+01 5.177649999999999864e+00 1.538810000000000011e+00 1.779179999999999851e+01 9.485099999999999643e-01 3.521209999999999951e+00 1.766159999999999997e+01
1.661710000000000020e+00 2.406369999999999898e+00 1.107409999999999961e+01 -5.083999999999999631e-01 6.260049999999999670e+00 1.170679999999999943e+01 6.116139999999999688e+00 1.611040000000000028e+00 1.184960000000000058e+01 3.923109999999999875e+00 5.604090000000000238e+00 1.155700000000000038e+01 -1.852419999999999956e+00 4.476469999999999949e+00 1.490970000000000084e+01 4.248619999999999841e+00 3.298869999999999969e+00 1.831739999999999924e+01 -3.817099999999999937e-01 2.021259999999999835e+00 1.742190000000000083e+01 2.073770000000000113e+00 3.759139999999999926e+00 1.495640000000000036e+01 -1.439699999999999869e-01 4.135400000000000187e-01 1.010079999999999956e+01 -1.901420000000000110e+00 4.524639999999999773e+00 1.035289999999999999e+01 3.813400000000000123e+00 9.642899999999999805e-01 1.039329999999999998e+01 1.791949999999999932e+00 5.094229999999999592e+00 1.017699999999999960e+01 1.874500000000000055e+00 1.745460000000000012e+00 1.367600000000000016e+01 2.074799999999999978e-01 5.799369999999999692e+00 1.410249999999999915e+01 5.365789999999999615e+00 2.129179999999999851e+00 1.419759999999999955e+01 4.002530000000000143e+00 5.804030000000000022e+00 1.414480000000000004e+01 4.421649999999999636e+00 6.216699999999999449e-01 1.773250000000000171e+01 2.070199999999999818e+00 4.134019999999999584e+00 1.752080000000000126e+01 -1.307949999999999946e+00 4.472570000000000157e+00 1.764399999999999835e+01 5.373850000000000016e+00 9.583899999999999642e-01 1.979820000000000135e+01
2.489679999999999893e+00 1.615760000000000085e+00 1.046429999999999971e+01 6.129030000000000200e+00 5.127950000000000230e+00 9.626549999999999940e+00 4.418020000000000280e+00 9.495500000000000052e-01 1.337770000000000081e+01 2.099330000000000140e+00 5.319460000000000299e+00 1.062400000000000055e+01 3.743189999999999795e+00 1.276820000000000066e+00 1.879629999999999868e+01 4.675080000000000346e+00 4.842559999999999754e+00 1.679729999999999990e+01 8.400059999999999860e+00 5.925449999999999662e+00 1.752619999999999933e+01 7.947140000000000093e+00 3.296590000000000131e+00 1.408939999999999948e+01 5.122250000000000192e+00 6.164000000000000035e-02 1.017590000000000039e+01 4.260710000000000441e+00 3.798029999999999795e+00 1.131879999999999953e+01 4.101589999999999847e+00 6.763700000000000045e+00 8.831310000000000215e+00 8.049500000000000099e+00 3.319650000000000212e+00 9.252599999999999270e+00 5.572390000000000398e+00 2.976760000000000073e+00 1.459849999999999959e+01 6.468340000000000423e+00 6.729569999999999830e+00 1.599530000000000030e+01 1.811630000000000074e+00 7.905900000000000150e-01 1.303899999999999970e+01 8.920769999999999200e+00 5.420010000000000439e+00 1.313240000000000052e+01 4.963530000000000442e+00 4.684160000000000323e+00 2.851799999999999891e-01 2.186269999999999936e+00 3.594939999999999802e+00 1.647599999999999909e+01 5.830040000000000333e+00 3.423989999999999867e+00 1.862470000000000070e+01 3.327160000000000117e+00 7.057290000000000063e+00 1.882939999999999969e+01
1.889750000000000041e+00 7.915600000000000414e-01 1.250869999999999926e+01 -9.972999999999999921e-02 4.104099999999999859e+00 1.159179999999999922e+01 6.316589999999999705e+00 6.996700000000000141e-01 1.171209999999999951e+01 4.276080000000000325e+00 4.331699999999999662e+00 1.178979999999999961e+01 7.924590000000000245e+00 1.944999999999999854e-02 1.634900000000000020e+01 -1.736450000000000049e+00 3.700029999999999930e+00 1.500309999999999988e+01 4.520100000000000229e-01 7.014339999999999797e+00 1.495909999999999940e+01 1.955400000000000027e+00 4.082919999999999661e+00 1.638589999999999947e+01 4.485529999999999795e+00 6.593899999999999650e+00 1.069319999999999915e+01 6.280240000000000045e+00 2.916910000000000114e+00 1.065760000000000041e+01 -1.069900000000000018e-01 6.587399999999999700e+00 1.111679999999999957e+01 1.998979999999999979e+00 2.818770000000000220e+00 1.079059999999999953e+01 3.804600000000000204e-01 2.642729999999999801e+00 1.411560000000000059e+01 -2.093539999999999957e+00 6.207329999999999792e+00 1.478689999999999927e+01 4.705720000000000347e+00 2.450140000000000207e+00 1.410360000000000014e+01 2.821629999999999860e+00 6.327939999999999898e+00 1.385590000000000011e+01 -8.591600000000000348e-01 2.258270000000000000e+00 1.767940000000000111e+01 6.370739999999999625e+00 3.606759999999999966e+00 1.943880000000000052e+01 9.491000000000000547e-01 6.454959999999999809e+00 1.721920000000000073e+01 4.509439999999999671e+00 4.624620000000000175e+00 1.753369999999999962e+01
-1.025679999999999925e+00 6.110009999999999941e+00 1.121780000000000044e+01 -1.616900000000000004e-01 2.604760000000000186e+00 1.041159999999999997e+01 5.823430000000000106e+00 1.684599999999999986e-01 1.262260000000000026e+01 3.698609999999999953e+00 3.366109999999999935e+00 1.036599999999999966e+01 6.549349999999999561e+00 2.417310000000000070e+00 1.665889999999999915e+01 -2.844930000000000181e+00 6.253070000000000128e+00 1.496879999999999988e+01 4.230229999999999713e+00 3.888119999999999798e+00 1.862640000000000029e+01 1.196379999999999999e+00 5.380840000000000067e+00 1.682329999999999970e+01 5.854519999999999946e+00 3.815869999999999873e+00 9.240059999999999718e+00 -1.992299999999999904e-01 1.894009999999999971e+00 1.286139999999999972e+01 1.193799999999999972e+00 5.046090000000000408e+00 1.049879999999999924e+01 1.876679999999999904e+00 1.087699999999999889e+00 9.220829999999999416e+00 -5.978599999999999470e-01 4.319169999999999732e+00 1.537850000000000072e+01 5.016219999999999679e+00 4.800349999999999895e+00 1.261270000000000024e+01 3.358150000000000190e+00 1.693769999999999998e+00 1.281639999999999979e+01 4.337390000000000079e+00 1.350959999999999939e+00 1.616209999999999880e+01 8.499100000000000543e-01 4.676280000000000214e+00 1.929329999999999856e+01 8.013299999999999867e-01 1.261910000000000087e+00 1.725430000000000064e+01 3.608460000000000001e+00 3.948650000000000215e+00 1.566259999999999941e+01 -1.278159999999999963e+00 3.355719999999999814e+00 1.894559999999999889e+01
4.616270000000000095e+00 1.315600000000000103e-01 9.433289999999999509e+00 7.516339999999999577e+00 2.191629999999999967e+00 1.535260000000000069e+01 1.098049999999999971e+00 3.487899999999999889e-01 8.741149999999999309e+00 2.707149999999999945e+00 3.885289999999999910e+00 9.626569999999999183e+00 2.372580000000000133e+00 5.926149999999999807e+00 1.638950000000000173e+01 2.570129999999999804e+00 6.434680000000000177e+00 1.270759999999999934e+01 5.482850000000000001e+00 6.307489999999999597e+00 1.549869999999999948e+01 3.400520000000000209e+00 7.760200000000000431e-01 3.111950000000000216e+00 5.241950000000000109e+00 5.293879999999999697e+00 9.959310000000000329e+00 6.592740000000000045e+00 1.690669999999999895e+00 1.039119999999999955e+01 8.740600000000000591e+00 5.802419999999999689e+00 7.393769999999999953e+00 2.818360000000000198e+00 1.833129999999999926e+00 7.924170000000000158e+00 3.694960000000000022e+00 4.763279999999999959e+00 1.432319999999999993e+01 1.797420000000000018e+00 1.319919999999999982e+00 1.327330000000000076e+01 8.165259999999999962e+00 4.068749999999999645e+00 1.204340000000000011e+01 7.197479999999999656e+00 4.368109999999999715e+00 1.695250000000000057e+01 5.311880000000000379e+00 1.057569999999999899e+00 1.453619999999999912e+01 7.865800000000000125e+00 5.241209999999999702e+00 2.724940000000000140e+00 1.766129999999999978e+00 1.009260000000000046e+00 1.744900000000000162e+01 5.896989999999999732e+00 5.086520000000000152e+00 4.222839999999999705e+00