-6.514124599999999532e+01
-6.700555022000000349e+01
-6.532851352999999506e+01
-6.508454394999999693e+01
-6.589510337999999479e+01
-6.668710665000000404e+01
-6.524727729999999326e+01
-6.443767230000000268e+01
-6.717053663000000086e+01
-6.645178343000000609e+01
-6.607412381000000323e+01
-6.568343237000000556e+01
-6.470767944000000682e+01
-6.453388576000000398e+01
-6.749660996999999441e+01
-6.522948431000000369e+01
-6.610598154999999565e+01
-6.617612868000000503e+01
-6.536182245000000535e+01
-6.622132216999999343e+01
-6.634064815000000692e+01
-6.622517344999999978e+01
-6.656702427000000455e+01
-6.650926723000000607e+01
-6.474545632999999611e+01
-6.850968738999999630e+01
-6.804964336000000458e+01
-6.457673705000000552e+01
-6.680063171999999838e+01
-6.763858940000000075e+01
-6.658234004999999911e+01
-6.666087512000000004e+01
-6.670505733999999620e+01
-6.625637930999999980e+01
-6.555226174999999955e+01
-6.642114759000000390e+01
-6.582224363999999639e+01
-6.631878899000000160e+01
-6.618754547999999716e+01
-6.708336334000000534e+01
-6.613645975000000021e+01
-6.501763379999999870e+01
-6.616142455000000666e+01
-6.766233350999999629e+01
-6.541663861000000679e+01
-6.716508362000000432e+01
-6.627849111000000448e+01
-6.524914409000000148e+01
-6.608116929999999911e+01
-6.591854528999999729e+01
-6.535305682000000616e+01
-6.570689627999999516e+01
-6.745647639999999967e+01
-6.674415134000000194e+01
-6.766218754999999874e+01
-6.446897407000000157e+01
-6.707925346000000388e+01
-6.675245171000000255e+01
-6.676732300999999836e+01
-6.695308013999999730e+01
-6.681624546999999836e+01
-6.427394230000000164e+01
-6.671482720999999572e+01
-6.776859528999999327e+01
-6.508374535000000094e+01
-6.720324988999999505e+01
-6.530846707000000606e+01
-6.737725964999999917e+01
-6.370054813000000138e+01
-6.568327227999999707e+01
-6.779170662999999308e+01
-6.756855009999999595e+01
-6.401170326000000443e+01
-6.531186511999999311e+01
-6.549008005999999682e+01
-6.545978515999999559e+01
-6.592730683999999997e+01
-6.416762715000000128e+01
-6.639448511999999880e+01
-6.716422719999999913e+01
-6.545262829000000693e+01
-6.396669425000000331e+01
-6.562008251999999686e+01
-6.474437806000000251e+01
-6.482035668999999700e+01
-6.600092218999999716e+01
-6.662246107999999367e+01
-6.793852216000000510e+01
-6.576171965000000341e+01
-6.685760181999999929e+01
-6.532049342000000536e+01
-6.688556094000000485e+01
-6.686325764999999421e+01
-6.516615446999999506e+01
-6.445445723999999643e+01
-6.480914943999999878e+01
-6.606808934999999394e+01
-6.600575684999999737e+01
-6.434252738000000704e+01
-6.564176122000000646e+01
