2.126230000000000064e+00 9.475299999999999834e-01 1.195120000000000005e+01 6.898199999999999887e-01 4.708479999999999777e+00 1.140729999999999933e+01 6.843569999999999709e+00 8.982799999999999674e-01 1.130330000000000013e+01 5.055609999999999715e+00 4.266359999999999708e+00 1.107370000000000054e+01 6.987099999999999866e+00 2.184480000000000199e+00 1.859680000000000177e+01 -1.230830000000000091e+00 5.602070000000000327e+00 1.550539999999999985e+01 4.820129999999999804e+00 2.091769999999999907e+00 1.509319999999999951e+01 2.369279999999999831e+00 5.436090000000000089e+00 1.460940000000000083e+01 -3.569179999999999797e+00 6.797539999999999694e+00 1.018239999999999945e+01 -1.151939999999999964e+00 3.215920000000000112e+00 1.011609999999999943e+01 5.799600000000000311e-01 7.009780000000000122e+00 1.027369999999999983e+01 2.524140000000000050e+00 2.960649999999999782e+00 1.042600000000000016e+01 2.235679999999999890e+00 1.256660000000000110e+00 1.475699999999999967e+01 1.317300000000000137e-01 4.079830000000000290e+00 1.403379999999999939e+01 7.287670000000000314e+00 9.892199999999999882e-01 1.384220000000000006e+01 4.859239999999999782e+00 5.095519999999999605e+00 1.371039999999999992e+01 5.906439999999999912e+00 2.153129999999999988e+00 8.522600000000000176e-01 -4.365899999999999781e-01 1.152069999999999927e+00 1.106950000000000101e+00 5.997399999999999842e+00 3.983589999999999964e+00 1.681670000000000087e+01 9.634000000000000341e-01 6.610120000000000218e+00 1.673549999999999827e+01
1.924230000000000107e+00 1.020680000000000032e+00 1.114520000000000088e+01 -2.080299999999999927e-01 4.930679999999999730e+00 1.161599999999999966e+01 6.074130000000000251e+00 1.005300000000000082e+00 1.191760000000000019e+01 4.020599999999999952e+00 5.325260000000000105e+00 1.182879999999999932e+01 1.215799999999999936e-01 2.571930000000000049e+00 1.463760000000000083e+01 -2.336269999999999847e+00 7.038829999999999920e+00 1.723349999999999937e+01 3.865899999999999892e+00 2.765219999999999789e+00 1.664590000000000103e+01 1.975759999999999961e+00 6.343589999999999840e+00 1.580780000000000030e+01 3.582590000000000163e+00 7.616310000000000358e+00 1.040900000000000070e+01 6.201170000000000293e+00 3.540919999999999845e+00 1.111040000000000028e+01 -3.288900000000000157e-01 7.368590000000000195e+00 1.033719999999999928e+01 1.919699999999999962e+00 3.906979999999999897e+00 1.049029999999999951e+01 2.370719999999999938e+00 1.198590000000000044e+00 1.356990000000000052e+01 4.012999999999999901e-02 5.120800000000000018e+00 1.411030000000000051e+01 6.219020000000000437e+00 1.353499999999999925e+00 1.458009999999999984e+01 4.311099999999999710e+00 5.012789999999999857e+00 1.490310000000000024e+01 1.261319999999999997e+00 2.855059999999999931e+00 1.700140000000000029e+01 -4.917599999999999749e-01 3.642310000000000159e+00 1.894259999999999877e+01 6.128639999999999866e+00 3.727339999999999876e+00 1.766009999999999991e+01 3.179000000000000159e-01 7.638760000000000439e+00 1.786349999999999838e+01
1.239889999999999937e+00 1.269060000000000077e+00 1.226149999999999984e+01 -5.417499999999999538e-01 4.755150000000000432e+00 1.135640000000000072e+01 5.873029999999999973e+00 1.166490000000000027e+00 1.088410000000000011e+01 3.446880000000000166e+00 4.671579999999999622e+00 1.058600000000000030e+01 -2.337680000000000202e+00 4.113279999999999603e+00 1.967010000000000147e+01 -1.223179999999999934e+00 5.826220000000000176e+00 1.590709999999999980e+01 4.370840000000000281e+00 2.166949999999999932e+00 1.437689999999999912e+01 2.012430000000000163e+00 4.964489999999999625e+00 1.528689999999999927e+01 8.082269999999999399e+00 1.430599999999999927e-01 9.873910000000000409e+00 5.831699999999999662e+00 3.707040000000000113e+00 9.837699999999999889e+00 -4.689599999999999880e-01 7.222999999999999865e+00 1.056400000000000006e+01 1.543500000000000094e+00 3.146720000000000184e+00 1.009179999999999922e+01 2.300590000000000135e+00 1.028299999999999992e+00 1.516970000000000063e+01 -2.523500000000000187e-01 3.994169999999999998e+00 1.398610000000000042e+01 5.958210000000000228e+00 7.010600000000000165e-01 1.355400000000000027e+01 3.587219999999999853e+00 4.520389999999999908e+00 1.323610000000000042e+01 1.887600000000000111e-01 1.336840000000000028e+00 1.376779999999999893e+00 1.206360000000000099e+00 6.386029999999999873e+00 1.709230000000000160e+01 5.747250000000000192e+00 3.614700000000000024e+00 1.715490000000000137e+01 7.162079999999999558e+00 6.072800000000000420e-01 1.976539999999999964e+01
2.232990000000000030e+00 5.755200000000000315e-01 1.120330000000000048e+01 1.262600000000000111e-01 4.246489999999999654e+00 1.203630000000000067e+01 6.356370000000000076e+00 9.075100000000000389e-01 1.182520000000000060e+01 3.754420000000000091e+00 4.414970000000000283e+00 1.188000000000000078e+01 2.484339999999999993e+00 2.296710000000000029e+00 1.468769999999999953e+01 -5.371000000000000218e-01 7.007990000000000386e+00 1.833569999999999922e+01 -5.204499999999999682e-01 1.008459999999999912e+00 1.670299999999999940e+01 1.574340000000000073e+00 5.924470000000000347e+00 1.477909999999999968e+01 4.005060000000000286e+00 6.758840000000000181e+00 1.057659999999999911e+01 6.212229999999999919e+00 3.264670000000000183e+00 1.066539999999999999e+01 2.680000000000000160e-01 6.397300000000000431e+00 1.054420000000000002e+01 1.768739999999999979e+00 2.928450000000000220e+00 1.048980000000000068e+01 1.539819999999999967e+00 1.332500000000000073e-01 1.377529999999999966e+01 -2.769900000000000140e-01 3.884189999999999809e+00 1.459909999999999997e+01 5.748750000000000249e+00 1.614130000000000065e+00 1.436439999999999984e+01 3.845050000000000079e+00 4.738870000000000360e+00 1.433060000000000045e+01 -2.198259999999999881e+00 4.731930000000000192e+00 1.912430000000000163e+01 2.289520000000000000e+00 1.905990000000000073e+00 1.716920000000000002e+01 -1.998639999999999972e+00 3.483089999999999797e+00 1.716829999999999856e+01 1.803909999999999902e+00 5.922880000000000145e+00 1.729769999999999897e+01
1.980739999999999945e+00 1.002860000000000085e+00 1.137839999999999918e+01 1.007500000000000062e-01 4.679170000000000051e+00 1.186609999999999943e+01 6.567000000000000171e+00 3.560699999999999976e-01 1.202759999999999962e+01 4.560380000000000322e+00 4.429809999999999803e+00 1.169630000000000081e+01 -1.251500000000000112e-01 2.682220000000000049e+00 1.463630000000000031e+01 -2.727349999999999941e+00 6.455429999999999779e+00 1.680630000000000024e+01 3.534130000000000216e+00 3.452040000000000219e+00 1.564269999999999960e+01 6.317610000000000170e+00 1.080929999999999946e+00 1.717449999999999832e+01 4.331529999999999880e+00 6.600920000000000343e+00 1.043079999999999963e+01 6.495540000000000092e+00 2.910470000000000113e+00 1.095190000000000019e+01 3.267300000000000204e-01 7.110199999999999854e+00 1.053159999999999918e+01 1.992469999999999963e+00 3.420700000000000074e+00 1.034680000000000000e+01 2.064880000000000049e+00 1.013439999999999896e+00 1.422530000000000072e+01 9.854000000000000259e-02 5.230970000000000120e+00 1.446649999999999991e+01 6.106169999999999654e+00 1.462080000000000046e+00 1.437129999999999974e+01 3.831700000000000106e+00 5.430399999999999672e+00 1.395449999999999946e+01 -1.286310000000000064e+00 3.819620000000000015e+00 1.849849999999999994e+01 2.022200000000000109e-01 2.272899999999999920e+00 1.698189999999999955e+01 4.128370000000000317e+00 2.183559999999999945e+00 1.787580000000000169e+01 2.909419999999999895e+00 5.903760000000000119e+00 1.776269999999999882e+01
1.667180000000000106e+00 5.837200000000000166e-01 1.102689999999999948e+01 -8.537999999999999756e-02 4.207489999999999952e+00 1.164429999999999943e+01 6.142660000000000231e+00 7.034599999999999742e-01 1.158699999999999974e+01 4.122600000000000264e+00 4.680939999999999657e+00 1.151600000000000001e+01 2.230160000000000142e+00 2.514180000000000081e+00 1.471739999999999959e+01 3.696520000000000028e+00 2.672599999999999976e-01 1.823229999999999862e+01 -7.187099999999999600e-01 1.518960000000000088e+00 1.750519999999999854e+01 1.878880000000000106e+00 6.096169999999999867e+00 1.534839999999999982e+01 3.628350000000000186e+00 6.775809999999999889e+00 1.001689999999999969e+01 6.228530000000000122e+00 3.086489999999999956e+00 1.012739999999999974e+01 -4.756299999999999972e-01 6.519090000000000273e+00 1.029819999999999958e+01 1.782229999999999981e+00 2.977079999999999949e+00 1.040910000000000046e+01 1.837499999999999911e+00 2.508500000000000174e-01 1.372799999999999976e+01 6.049999999999999822e-03 4.129690000000000083e+00 1.440349999999999930e+01 6.118299999999999628e+00 1.063059999999999894e+00 1.427769999999999939e+01 4.041599999999999859e+00 4.524549999999999628e+00 1.404279999999999973e+01 -1.620060000000000056e+00 5.287139999999999951e+00 1.951829999999999998e+01 2.065869999999999873e+00 2.013339999999999907e+00 1.741229999999999833e+01 -1.634589999999999987e+00 3.633129999999999971e+00 1.791420000000000101e+01 2.050349999999999895e+00 6.732479999999999798e+00 1.777120000000000033e+01
1.767290000000000028e+00 1.751870000000000038e+00 1.171909999999999918e+01 -5.064699999999999758e-01 5.578549999999999898e+00 1.187989999999999924e+01 6.061020000000000074e+00 1.619259999999999922e+00 1.201730000000000054e+01 3.860549999999999926e+00 5.420490000000000030e+00 1.170100000000000051e+01 3.207499999999999796e-01 1.571709999999999940e+00 1.599140000000000050e+01 -2.114380000000000148e+00 6.893930000000000113e+00 1.539279999999999937e+01 3.994650000000000034e+00 2.704110000000000014e+00 1.666420000000000101e+01 2.355269999999999975e+00 6.454979999999999940e+00 1.511469999999999914e+01 8.293889999999999318e+00 9.894000000000000017e-02 1.092510000000000048e+01 6.046949999999999825e+00 4.001439999999999664e+00 1.083489999999999931e+01 4.098480000000000345e+00 2.262699999999999989e-01 1.087570000000000014e+01 1.545860000000000012e+00 4.267089999999999606e+00 1.080809999999999960e+01 2.389879999999999782e+00 1.530140000000000056e+00 1.443210000000000015e+01 -3.749399999999999955e-01 5.350480000000000125e+00 1.450019999999999953e+01 6.434499999999999886e+00 1.379280000000000062e+00 1.472710000000000008e+01 4.154370000000000118e+00 4.824270000000000280e+00 1.417869999999999919e+01 1.458930000000000060e+00 3.206649999999999778e+00 1.794859999999999900e+01 -3.589519999999999822e+00 7.131669999999999732e+00 1.749960000000000093e+01 5.179350000000000342e+00 1.036799999999999944e-01 1.701289999999999836e+01 1.928819999999999979e+00 5.866329999999999600e+00 1.776790000000000092e+01
1.899899999999999922e+00 1.167049999999999921e+00 1.163700000000000045e+01 -2.435599999999999987e-01 4.742230000000000167e+00 1.146359999999999957e+01 5.588449999999999918e+00 1.207850000000000090e+00 1.194819999999999993e+01 3.624769999999999825e+00 4.801359999999999850e+00 1.236689999999999934e+01 6.290499999999999980e-01 2.542060000000000208e+00 1.475319999999999965e+01 -2.616680000000000117e+00 6.945459999999999745e+00 1.739750000000000085e+01 3.961170000000000080e+00 2.234809999999999963e+00 1.638360000000000127e+01 1.699869999999999992e+00 6.142739999999999867e+00 1.523610000000000042e+01 3.574289999999999967e+00 7.261459999999999582e+00 1.109960000000000058e+01 5.827259999999999884e+00 3.515579999999999927e+00 1.065750000000000064e+01 -3.290100000000000247e-01 7.233080000000000176e+00 1.035929999999999929e+01 2.010470000000000201e+00 3.887340000000000018e+00 1.050510000000000055e+01 2.829320000000000057e+00 1.041740000000000110e+00 1.391310000000000002e+01 -3.499399999999999733e-01 5.054149999999999920e+00 1.407850000000000001e+01 6.307979999999999698e+00 1.320880000000000054e+00 1.453659999999999997e+01 4.244369999999999976e+00 5.217590000000000394e+00 1.521369999999999933e+01 1.251789999999999958e+00 2.877600000000000158e+00 1.724210000000000065e+01 -7.485800000000000232e-01 3.358000000000000096e+00 1.858079999999999998e+01 6.005840000000000067e+00 3.821000000000000174e+00 1.699259999999999948e+01 4.719800000000000106e-01 6.531419999999999781e+00 1.728490000000000038e+01
-9.134000000000000452e-02 1.001069999999999904e+00 1.193410000000000082e+01 -1.718509999999999982e+00 5.159600000000000186e+00 1.180669999999999931e+01 4.004349999999999632e+00 1.708399999999999919e+00 1.134290000000000020e+01 2.015639999999999876e+00 4.403279999999999639e+00 1.172719999999999985e+01 8.724899999999999878e-01 3.235850000000000115e+00 1.620479999999999876e+01 4.500289999999999679e+00 4.259839999999999627e+00 1.562310000000000088e+01 8.587799999999999878e-01 6.798370000000000246e+00 1.528560000000000052e+01 2.528430000000000177e+00 3.204610000000000181e+00 1.937630000000000052e+01 5.775879999999999903e+00 7.009999999999999738e-03 1.076909999999999989e+01 4.118829999999999991e+00 4.222669999999999924e+00 1.013799999999999990e+01 1.949449999999999905e+00 3.222200000000000064e-01 1.055279999999999951e+01 1.562000000000000055e-01 3.244720000000000049e+00 1.046640000000000015e+01 5.701600000000000001e-01 1.743060000000000054e+00 1.838510000000000133e+01 -3.363690000000000069e+00 7.041820000000000412e+00 1.401399999999999935e+01 4.501899999999999791e-01 4.610669999999999824e+00 1.380889999999999951e+01 4.705320000000000391e+00 3.228520000000000056e+00 1.327410000000000068e+01 3.838039999999999896e+00 2.206020000000000092e+00 1.694440000000000168e+01 -8.640600000000000502e-01 5.242530000000000356e+00 1.671199999999999974e+01 7.021560000000000024e+00 1.101529999999999898e+00 1.517099999999999937e+01 2.621830000000000105e+00 5.532199999999999562e+00 1.714539999999999864e+01
2.109680000000000000e+00 1.617459999999999898e+00 1.124390000000000001e+01 -3.448200000000000154e-01 5.164609999999999701e+00 1.187500000000000000e+01 5.976799999999999891e+00 1.766129999999999978e+00 1.144740000000000002e+01 3.804320000000000146e+00 5.368129999999999846e+00 1.233430000000000071e+01 2.057400000000000062e-01 2.242199999999999971e+00 1.449890000000000079e+01 -1.343250000000000055e+00 4.995040000000000369e+00 1.876200000000000045e+01 5.126070000000000348e+00 2.150510000000000144e+00 1.621760000000000090e+01 2.970079999999999831e+00 5.401900000000000368e+00 1.595040000000000013e+01 -2.004700000000000093e-01 6.917299999999999560e-01 1.043720000000000070e+01 -2.204270000000000174e+00 4.316390000000000171e+00 1.046570000000000000e+01 4.023769999999999847e+00 4.972300000000000053e-01 9.984519999999999840e+00 1.928840000000000110e+00 4.098910000000000053e+00 1.068629999999999924e+01 2.457050000000000178e+00 1.073059999999999903e+00 1.384720000000000084e+01 5.816599999999999548e-01 4.636350000000000193e+00 1.432920000000000016e+01 6.344439999999999635e+00 7.386800000000000033e-01 1.376079999999999970e+01 5.126039999999999708e+00 5.086899999999999977e+00 1.453100000000000058e+01 -4.605199999999999849e-01 1.839890000000000025e+00 1.697660000000000124e+01 6.338899999999999535e-01 6.303700000000000081e+00 1.690749999999999886e+01 3.574359999999999982e+00 3.475330000000000030e+00 1.780669999999999931e+01 4.905090000000000394e+00 4.683999999999999830e-01 1.906439999999999912e+01
2.057669999999999888e+00 9.215900000000000203e-01 1.168790000000000084e+01 -2.518799999999999928e-01 4.574180000000000135e+00 1.123010000000000019e+01 5.913490000000000357e+00 1.126949999999999896e+00 1.191729999999999912e+01 4.060609999999999609e+00 5.245289999999999786e+00 1.150689999999999991e+01 2.480900000000000050e-01 2.454029999999999934e+00 1.546429999999999971e+01 -2.030060000000000198e+00 6.437789999999999679e+00 1.579550000000000054e+01 4.238920000000000243e+00 2.894760000000000222e+00 1.527710000000000079e+01 1.791299999999999892e+00 5.933399999999999785e+00 1.640630000000000166e+01 3.994639999999999969e+00 7.679960000000000342e+00 1.093149999999999977e+01 6.029460000000000264e+00 3.569890000000000008e+00 1.080780000000000030e+01 -2.439500000000000002e-01 7.312999999999999723e+00 1.075590000000000046e+01 2.072389999999999954e+00 3.543540000000000134e+00 1.093280000000000030e+01 2.295510000000000161e+00 1.250189999999999912e+00 1.443430000000000035e+01 4.016000000000000125e-02 4.822899999999999743e+00 1.461100000000000065e+01 6.415390000000000370e+00 1.581129999999999924e+00 1.459520000000000017e+01 4.670689999999999564e+00 5.368520000000000181e+00 1.452289999999999992e+01 1.206050000000000066e+00 2.768190000000000150e+00 1.799320000000000164e+01 -9.720499999999999696e-01 7.289570000000000327e+00 1.780310000000000059e+01 3.143400000000000194e+00 3.289429999999999854e+00 1.770400000000000063e+01 2.983750000000000124e+00 7.362330000000000041e+00 1.815709999999999980e+01
2.504579999999999806e+00 1.343420000000000059e+00 1.248770000000000024e+01 7.996100000000000430e-01 5.344649999999999679e+00 1.141699999999999982e+01 7.386569999999999858e+00 1.436490000000000045e+00 1.137669999999999959e+01 5.211030000000000051e+00 5.276919999999999611e+00 1.194929999999999914e+01 -6.839899999999999869e-01 3.326309999999999878e+00 1.546429999999999971e+01 5.255130000000000301e+00 5.816480000000000317e+00 1.814669999999999916e+01 3.397479999999999833e+00 3.608870000000000022e+00 1.553490000000000038e+01 1.859459999999999891e+00 7.275009999999999977e+00 1.543800000000000061e+01 7.807399999999999896e-01 1.055500000000000049e-01 1.068900000000000006e+01 -1.613790000000000058e+00 3.915080000000000116e+00 1.037470000000000070e+01 1.538510000000000044e+00 7.387599999999999945e+00 1.003519999999999968e+01 2.896479999999999944e+00 3.814820000000000100e+00 1.101169999999999938e+01 1.462169999999999970e+00 1.792370000000000019e+00 1.499360000000000070e+01 -1.909299999999999886e-01 6.284720000000000084e+00 1.382479999999999976e+01 6.294520000000000337e+00 2.149659999999999904e+00 1.402549999999999919e+01 4.354829999999999757e+00 5.935730000000000395e+00 1.416339999999999932e+01 -2.074900000000000078e-01 7.792299999999999782e-01 1.727870000000000061e+01 6.659819999999999851e+00 6.689100000000000046e-01 1.873560000000000159e+01 4.643530000000000157e+00 1.688539999999999930e+00 1.723770000000000024e+01 2.242500000000000160e+00 5.146110000000000184e+00 1.717520000000000024e+01
1.845720000000000027e+00 1.513940000000000063e+00 1.163349999999999973e+01 -4.096000000000000335e-02 5.447779999999999845e+00 1.158740000000000059e+01 6.295060000000000322e+00 1.514350000000000085e+00 1.165910000000000046e+01 4.143519999999999648e+00 5.130910000000000082e+00 1.114160000000000039e+01 2.915200000000000014e-01 2.183660000000000156e+00 1.641969999999999885e+01 -2.239689999999999959e+00 6.055659999999999599e+00 1.539719999999999978e+01 4.858430000000000248e+00 2.374140000000000139e+00 1.560490000000000066e+01 2.121340000000000003e+00 6.062520000000000131e+00 1.587819999999999965e+01 8.447800000000000864e+00 1.168000000000000010e-01 1.081639999999999979e+01 -2.159549999999999859e+00 4.151989999999999625e+00 1.063530000000000086e+01 4.111539999999999750e+00 3.933499999999999774e-01 1.057980000000000054e+01 1.953179999999999916e+00 3.838509999999999867e+00 1.056709999999999994e+01 2.493269999999999875e+00 1.009919999999999929e+00 1.457760000000000034e+01 -4.173000000000000320e-02 5.298659999999999926e+00 1.445110000000000028e+01 6.986690000000000289e+00 1.205070000000000086e+00 1.461969999999999992e+01 4.271810000000000329e+00 4.700829999999999842e+00 1.432740000000000080e+01 -1.189230000000000009e+00 4.140170000000000350e+00 1.845899999999999963e+01 -2.846969999999999779e+00 5.156789999999999985e+00 1.779939999999999856e+01 3.799980000000000135e+00 2.605859999999999843e+00 1.796580000000000155e+01 3.913730000000000153e+00 5.692219999999999835e+00 1.840139999999999887e+01
2.277969999999999828e+00 2.260860000000000092e+00 1.134229999999999983e+01 2.095999999999999946e-02 6.722800000000000331e+00 1.156610000000000049e+01 -1.744799999999999907e+00 3.119949999999999779e+00 1.086810000000000009e+01 4.404600000000000293e+00 6.013510000000000133e+00 1.135670000000000002e+01 2.015589999999999993e+00 2.998740000000000183e+00 1.859270000000000067e+01 -1.237929999999999975e+00 4.109840000000000160e+00 1.436009999999999920e+01 1.382949999999999902e+00 7.751500000000000057e-01 1.429529999999999923e+01 -2.304129999999999789e+00 6.179579999999999629e+00 1.871059999999999945e+01 -1.471099999999999908e-01 9.024299999999999544e-01 9.810639999999999361e+00 -1.837620000000000031e+00 5.418169999999999931e+00 1.001559999999999917e+01 4.680679999999999730e+00 1.589409999999999989e+00 1.018609999999999971e+01 2.048950000000000049e+00 5.275210000000000399e+00 1.092210000000000036e+01 1.926209999999999978e+00 3.079209999999999781e+00 1.374949999999999939e+01 -2.660500000000000087e-01 6.424870000000000303e+00 1.407540000000000013e+01 6.158409999999999940e+00 2.258480000000000043e+00 1.340729999999999933e+01 4.355699999999999683e+00 6.088199999999999612e+00 1.393459999999999965e+01 2.844980000000000064e+00 6.133899999999999908e-01 1.689209999999999923e+01 -1.210650000000000004e+00 3.997209999999999930e+00 1.714320000000000022e+01 6.404499999999999638e-01 1.289999999999999914e-03 6.749699999999999589e-01 3.853499999999999925e+00 5.317849999999999966e+00 1.978529999999999944e+01
2.014419999999999877e+00 1.143219999999999903e+00 1.181250000000000000e+01 -4.728000000000000258e-02 4.496769999999999712e+00 1.123160000000000025e+01 6.735389999999999766e+00 1.147450000000000081e+00 1.127250000000000085e+01 4.485909999999999620e+00 4.491319999999999979e+00 1.144519999999999982e+01 -8.612100000000000311e-01 2.900850000000000151e+00 1.885650000000000048e+01 -1.759549999999999947e+00 5.583179999999999588e+00 1.570390000000000086e+01 4.967959999999999710e+00 2.483080000000000176e+00 1.591140000000000043e+01 2.505889999999999951e+00 5.307299999999999685e+00 1.495589999999999975e+01 4.672819999999999752e+00 6.698129999999999917e+00 1.014639999999999986e+01 6.411690000000000111e+00 3.386429999999999829e+00 9.912399999999999878e+00 4.344549999999999912e+00 3.034100000000000130e-01 1.021160000000000068e+01 2.456259999999999888e+00 3.395669999999999966e+00 1.009960000000000058e+01 2.374190000000000023e+00 9.818599999999999550e-01 1.449900000000000055e+01 1.806099999999999928e-01 4.118470000000000297e+00 1.384130000000000038e+01 6.674080000000000013e+00 1.270599999999999952e+00 1.419159999999999933e+01 4.971589999999999954e+00 4.751149999999999984e+00 1.422509999999999941e+01 7.973830000000000418e+00 4.992300000000000071e-01 1.945550000000000068e+01 2.278600000000000070e-01 5.494030000000000413e+00 1.818830000000000169e+01 5.410879999999999690e+00 4.658389999999999809e+00 1.778940000000000055e+01 2.958889999999999798e+00 5.547679999999999723e+00 1.789120000000000132e+01
1.631999999999999895e+00 6.549800000000000066e-01 1.153439999999999976e+01 1.038499999999999979e-01 3.809600000000000097e+00 1.016729999999999912e+01 6.145999999999999908e+00 4.527200000000000113e-01 1.079299999999999926e+01 4.336109999999999687e+00 3.984669999999999934e+00 1.066220000000000034e+01 2.599799999999999889e-01 3.867820000000000036e+00 4.561379999999999768e+00 -2.123159999999999936e+00 4.584100000000000286e+00 1.438519999999999932e+01 4.693360000000000198e+00 8.771799999999999597e-01 1.518260000000000076e+01 1.869729999999999892e+00 4.459360000000000213e+00 1.413480000000000025e+01 4.714319999999999844e+00 6.414679999999999715e+00 9.670040000000000191e+00 6.180010000000000225e+00 2.841289999999999871e+00 9.072900000000000631e+00 -4.050099999999999811e-01 6.373450000000000060e+00 9.745739999999999625e+00 2.226620000000000044e+00 2.960939999999999905e+00 9.230549999999999145e+00 1.947060000000000013e+00 7.498299999999999965e-01 1.432240000000000002e+01 -2.254599999999999937e-01 3.495460000000000012e+00 1.280359999999999943e+01 6.629800000000000360e+00 1.887399999999999911e-01 1.335510000000000019e+01 3.768310000000000048e+00 3.035670000000000091e+00 1.299820000000000064e+01 -1.019940000000000069e+00 5.222430000000000128e+00 2.405260000000000176e+00 6.752599999999999714e-01 5.173799999999999955e+00 1.640559999999999974e+01 5.935640000000000249e+00 2.777489999999999792e+00 1.652070000000000149e+01 4.590099999999999736e-01 6.463239999999999874e+00 3.584550000000000125e+00
2.267830000000000013e+00 1.138759999999999994e+00 1.176190000000000069e+01 1.755999999999999922e-02 4.824530000000000207e+00 1.116719999999999935e+01 6.688880000000000159e+00 1.113350000000000062e+00 1.191479999999999961e+01 4.386700000000000266e+00 4.680220000000000269e+00 1.240429999999999922e+01 4.189100000000000046e-01 2.782739999999999991e+00 1.518829999999999991e+01 -1.768180000000000085e+00 6.693290000000000184e+00 1.512659999999999982e+01 4.889230000000000409e+00 2.698420000000000041e+00 1.626300000000000168e+01 2.307760000000000034e+00 6.351210000000000022e+00 1.561580000000000013e+01 4.265229999999999855e+00 7.347129999999999939e+00 1.137079999999999913e+01 6.407009999999999650e+00 3.604940000000000033e+00 1.090099999999999980e+01 -1.045200000000000018e-01 7.510510000000000019e+00 1.100530000000000008e+01 2.508199999999999985e+00 3.637220000000000120e+00 1.079379999999999917e+01 2.576179999999999914e+00 1.589539999999999953e+00 1.446899999999999942e+01 1.107800000000000035e-01 5.168409999999999727e+00 1.393389999999999951e+01 7.160449999999999982e+00 1.244669999999999943e+00 1.452570000000000050e+01 4.889029999999999987e+00 5.291409999999999947e+00 1.486229999999999940e+01 -1.799800000000000011e-01 2.587400000000000144e+00 1.754729999999999990e+01 -1.360649999999999915e+00 6.951410000000000089e+00 1.762559999999999860e+01 1.971200000000000063e+00 1.675780000000000047e+00 1.824449999999999861e+01 7.353899999999999881e-01 7.544660000000000366e+00 1.774599999999999866e+01
8.814400000000000013e-01 1.731149999999999967e+00 1.109229999999999983e+01 -8.275700000000000278e-01 5.590150000000000396e+00 1.198179999999999978e+01 5.218479999999999563e+00 1.884439999999999893e+00 1.136500000000000021e+01 3.405679999999999819e+00 5.189709999999999823e+00 1.130640000000000001e+01 6.764599999999999502e-01 4.296389999999999709e+00 1.521570000000000000e+01 6.936200000000000143e-01 8.566000000000000281e-01 1.796099999999999852e+01 3.071930000000000049e+00 1.838149999999999951e+00 1.481090000000000018e+01 3.175089999999999968e+00 3.938250000000000028e+00 1.795159999999999911e+01 7.347299999999999720e+00 6.847199999999999953e-01 1.013719999999999999e+01 5.728430000000000355e+00 4.170359999999999623e+00 1.045090000000000074e+01 3.035460000000000047e+00 5.209000000000000297e-01 1.011710000000000065e+01 1.108049999999999979e+00 4.059510000000000396e+00 1.057600000000000051e+01 7.094099999999999850e-01 1.573090000000000099e+00 1.377469999999999928e+01 -1.768979999999999997e+00 5.082139999999999880e+00 1.460449999999999982e+01 5.377349999999999852e+00 9.332099999999999840e-01 1.361129999999999995e+01 3.314270000000000049e+00 4.658389999999999809e+00 1.404410000000000025e+01 6.696600000000000330e-01 4.782000000000000028e+00 1.778500000000000014e+01 -2.194010000000000016e+00 4.812149999999999928e+00 1.760239999999999938e+01 3.435179999999999900e+00 1.396249999999999991e+00 1.740510000000000090e+01 5.316880000000000273e+00 4.547930000000000028e+00 1.962590000000000146e+01
1.881229999999999958e+00 1.685720000000000107e+00 1.120170000000000066e+01 -9.521000000000000296e-02 4.898559999999999803e+00 1.113640000000000008e+01 5.871629999999999683e+00 1.617499999999999938e+00 1.130690000000000062e+01 3.624019999999999797e+00 5.669679999999999609e+00 1.247809999999999953e+01 4.541899999999999826e-01 2.156639999999999890e+00 1.440649999999999942e+01 -9.839099999999999513e-01 6.018500000000000405e+00 1.989789999999999992e+01 5.843410000000000437e+00 2.465230000000000032e+00 1.642879999999999896e+01 2.776079999999999881e+00 4.967240000000000322e+00 1.616059999999999874e+01 8.044349999999999667e+00 5.067800000000000082e-01 1.038729999999999976e+01 -2.242480000000000029e+00 4.143169999999999575e+00 1.087729999999999997e+01 3.747100000000000097e+00 4.550100000000000255e-01 9.803050000000000708e+00 2.197099999999999831e+00 4.045370000000000132e+00 1.016970000000000063e+01 2.606790000000000163e+00 1.272240000000000038e+00 1.359529999999999994e+01 4.002700000000000147e-01 4.675679999999999836e+00 1.395340000000000025e+01 6.354860000000000397e+00 9.314500000000000002e-01 1.380020000000000024e+01 4.840279999999999916e+00 4.818019999999999747e+00 1.454920000000000080e+01 -8.665000000000000480e-02 2.339719999999999800e+00 1.695210000000000150e+01 6.514699999999999935e-01 6.773200000000000109e+00 1.693359999999999843e+01 3.504440000000000222e+00 2.691600000000000215e+00 1.760739999999999839e+01 1.660749999999999948e+00 6.609370000000000189e+00 1.916860000000000142e+01