2.433359999999999967e-01 -5.854800000000000004e-01 6.756010000000000071e-01 -1.932830000000000104e-01 -8.593990000000000240e-01 9.710699999999999887e-02 5.687010000000000121e-01 1.446899999999999922e-02 -9.868699999999999695e-02 -3.434389999999999943e-01 -2.548299999999999871e-02 2.542820000000000080e-01 6.298359999999999514e-01 -5.858680000000000554e-01 -1.542900000000000105e-01 8.285099999999999409e-02 1.956228999999999996e+00 -1.858999999999999889e-02 7.422480000000000189e-01 -2.032779999999999865e-01 7.760999999999999670e-03 -7.940800000000000636e-02 8.235639999999999628e-01 5.828849999999999865e-01 -2.530330000000000079e-01 8.913600000000000689e-02 -1.187949999999999978e-01 -6.429399999999999560e-01 2.305840000000000112e-01 -1.528999999999999977e-02 -3.163119999999999821e-01 1.027020000000000016e-01 3.219469999999999832e-01 3.912030000000000229e-01 1.310515000000000096e+00 -9.662700000000000455e-02 3.240919999999999912e-01 -3.700189999999999868e-01 -8.244839999999999947e-01 1.072653999999999996e+00 -4.911249999999999782e-01 -1.620475000000000110e+00 -1.128636999999999890e+00 1.216399999999999981e-01 2.599730000000000096e-01 7.958300000000000096e-02 -1.193851999999999913e+00 -1.161220000000000030e-01 2.898600000000000135e-02 -2.267790000000000084e-01 1.007940999999999976e+00 -6.823449999999999793e-01 4.750880000000000103e-01 -6.588380000000000347e-01 -9.502070000000000238e-01 -7.557890000000000441e-01 7.888410000000000144e-01 4.261130000000000195e-01 1.731449999999999934e-01 -2.741410000000000236e-01
-6.950560000000000072e-01 6.525250000000000217e-01 -4.612160000000000148e-01 -5.512299999999999839e-02 -7.020500000000000351e-02 -8.158180000000000431e-01 -1.663969999999999894e-01 1.956519999999999926e-01 7.399899999999999534e-02 -6.602399999999999936e-02 -8.534220000000000139e-01 6.508279999999999621e-01 4.424839999999999884e-01 -7.686589999999999812e-01 -2.598869999999999791e-01 -1.956410000000000093e-01 -3.237909999999999955e-01 -5.860100000000000031e-02 5.552209999999999646e-01 -7.009980000000000100e-01 -2.244909999999999961e-01 -1.662510000000000099e-01 1.889099999999999946e-01 1.564679999999999960e-01 7.704619999999999802e-01 1.063999999999999946e-01 8.044500000000000262e-02 -3.081740000000000035e-01 5.761169999999999902e-01 -3.824699999999999767e-01 4.306079999999999908e-01 1.701899999999999941e-02 2.297440000000000038e-01 3.054479999999999973e-01 -4.305390000000000050e-01 -8.334300000000000042e-02 -8.116539999999999866e-01 3.368720000000000048e-01 1.386012999999999940e+00 -3.376879999999999882e-01 4.030710000000000126e-01 8.283789999999999765e-01 6.233779999999999877e-01 -3.198690000000000144e-01 -2.982569999999999943e-01 -7.047959999999999781e-01 5.513489999999999780e-01 -2.652590000000000225e-01 -6.586290000000000200e-01 1.525739999999999874e-01 9.496379999999999821e-01 -4.360240000000000227e-01 -4.224120000000000097e-01 -6.719300000000000272e-01 8.969129999999999603e-01 1.091293000000000069e+00 2.432390000000000108e-01 5.769419999999999549e-01 -3.818880000000000052e-01 -1.077480999999999911e+00
5.253000000000000030e-02 -1.082079999999999986e-01 -2.347600000000000034e-02 1.277782999999999891e+00 -2.207900000000000140e-02 4.367730000000000223e-01 8.165630000000000388e-01 6.655099999999999905e-02 3.427430000000000199e-01 3.855859999999999843e-01 1.182279000000000080e+00 -4.487889999999999935e-01 7.542500000000000593e-02 6.277800000000000047e-02 9.487609999999999655e-01 1.587659999999999905e-01 -6.663339999999999819e-01 1.912919999999999898e-01 -8.790519999999999445e-01 2.120940000000000047e+00 9.648670000000000302e-01 -2.183599999999999985e-01 -2.074729999999999908e-01 -1.226561000000000012e+00 -4.618889999999999940e-01 -9.523019999999999818e-01 3.019979999999999887e-01 -3.792940000000000200e-01 -5.609459999999999447e-01 2.777800000000000061e-02 -1.395142000000000104e+00 -3.074560000000000071e-01 -4.574599999999999778e-01 -9.163660000000000139e-01 3.349170000000000202e-01 -1.762839999999999963e-01 -1.136489000000000082e+00 -3.817769999999999775e-01 6.228839999999999932e-01 -2.061389999999999889e-01 4.081460000000000088e-01 -7.900100000000000178e-02 2.474838000000000093e+00 -1.458693000000000017e+00 -1.216202000000000005e+00 8.793830000000000258e-01 -1.885280000000000011e-01 1.184590999999999950e+00 1.071082000000000090e+00 6.451919999999999877e-01 1.403272000000000075e+00 -3.465119999999999867e-01 4.272100000000000203e-02 4.329629999999999868e-01 -1.329039999999999944e-01 4.920309999999999961e-01 -1.791109000000000062e+00 -1.119812000000000030e+00 -5.017599999999999838e-01 -1.439038999999999957e+00
-1.906589999999999951e-01 -8.906079999999999552e-01 1.357987999999999973e+00 -1.160325999999999969e+00 -3.542540000000000133e-01 3.771379999999999733e-01 -1.026791999999999927e+00 7.946839999999999460e-01 6.504410000000000469e-01 8.175200000000000244e-01 -5.587459999999999649e-01 -2.017174999999999940e+00 2.332269999999999899e-01 3.092219999999999969e-01 -2.472350000000000103e-01 -7.499400000000000510e-02 -7.305430000000000534e-01 -6.939099999999999435e-02 -1.059930000000000039e-01 3.082909999999999817e-01 2.393780000000000074e-01 -1.144155000000000033e+00 5.708800000000000541e-01 -3.051900000000000099e-02 1.180969999999999936e-01 -1.025741000000000014e+00 -1.092174999999999896e+00 -6.173999999999999488e-01 3.581130000000000146e-01 3.049780000000000268e-01 3.944349999999999801e-01 6.163419999999999455e-01 -1.333709999999999896e-01 9.730100000000000415e-01 1.188412000000000024e+00 -4.282309999999999728e-01 4.801650000000000085e-01 1.553460000000000119e-01 -4.992880000000000096e-01 9.545059999999999656e-01 7.687720000000000109e-01 -5.700840000000000352e-01 -2.107390000000000096e-01 -1.324305999999999983e+00 -5.873410000000000020e-01 2.981469999999999954e-01 -6.683029999999999804e-01 8.645629999999999704e-01 4.450109999999999899e-01 3.181860000000000244e-01 -3.440599999999999770e-01 -2.262180000000000024e-01 -9.824299999999999700e-02 1.099364000000000008e+00 -1.228039999999999965e-01 -4.129000000000000031e-02 1.468049999999999911e-01 1.659609999999999974e-01 3.037880000000000025e-01 9.782149999999999457e-01
7.907610000000000472e-01 -5.225199999999999984e-02 8.100800000000000223e-01 -5.658900000000000041e-02 1.102719999999999950e-01 -1.899679999999999980e-01 3.572000000000000088e-03 2.225280000000000036e-01 2.796520000000000117e-01 -5.550840000000000218e-01 -1.083919000000000077e+00 4.451959999999999806e-01 5.267389999999999572e-01 4.450959999999999916e-01 -1.808353000000000099e+00 -5.558500000000000246e-02 -2.137819999999999998e-01 3.361190000000000011e-01 -3.360500000000000154e-01 -2.357509999999999883e-01 3.971319999999999850e-01 -5.457100000000000145e-02 -1.151054000000000022e+00 1.727599999999999969e-01 -5.991999999999999930e-03 1.192585999999999924e+00 -6.206819999999999560e-01 6.312900000000000178e-01 7.310539999999999816e-01 -2.985579999999999901e-01 -9.828299999999999814e-01 -6.548429999999999529e-01 1.044419999999999932e-01 3.800439999999999929e-01 2.390990000000000060e-01 4.887020000000000253e-01 -2.786870000000000180e-01 8.418210000000000415e-01 -6.863339999999999996e-01 -2.101500000000000035e-01 -2.520140000000000158e-01 -9.986949999999999994e-01 -8.151450000000000085e-01 -1.007559999999999983e-01 -1.192119999999999985e-01 2.171029999999999904e-01 -4.534819999999999962e-01 1.139050000000000062e-01 7.878309999999999480e-01 -4.994600000000000151e-01 -9.997530000000000028e-01 5.099900000000000544e-01 6.889340000000000463e-01 3.532392000000000198e+00 -6.628560000000000008e-01 2.358389999999999931e-01 -5.951980000000000048e-01 1.662099999999999966e-01 -9.913999999999999202e-03 -3.636289999999999800e-01
4.560830000000000162e-01 -1.257649000000000017e+00 1.366645000000000110e+00 -1.017106999999999983e+00 3.404170000000000251e-01 3.357029999999999736e-01 -7.422029999999999461e-01 2.445559999999999956e-01 -3.408200000000000118e-02 7.913000000000000589e-02 -1.134926000000000101e+00 -9.166130000000000111e-01 -1.039680000000000049e-01 4.540640000000000231e-01 -1.322399999999999964e-01 3.712460000000000204e-01 -1.185624999999999929e+00 9.185440000000000271e-01 1.707051000000000096e+00 -1.956075000000000008e+00 -5.753650000000000153e-01 -7.436099999999999655e-02 -5.125960000000000516e-01 -1.813406000000000073e+00 1.459239999999999982e-01 1.481280000000000097e-01 2.456909999999999927e-01 -3.356029999999999847e-01 9.628299999999999359e-02 1.361218999999999957e+00 6.764869999999999495e-01 4.505580000000000140e-01 3.002020000000000244e-01 9.812950000000000284e-01 1.335361000000000020e+00 -7.139929999999999888e-01 -9.169900000000000273e-02 -3.965730000000000088e-01 -6.968189999999999662e-01 4.350570000000000270e-01 3.590610000000000190e-01 -2.039680000000000104e-01 -3.810000000000000019e-03 -2.265250000000000041e-01 -5.452820000000000444e-01 -3.950500000000000123e-01 -1.452990000000000115e-01 9.915380000000000305e-01 3.799799999999999844e-01 9.733650000000000357e-01 3.413189999999999835e-01 -5.485970000000000013e-01 5.309960000000000235e-01 -6.077409999999999757e-01 -1.755945000000000089e+00 2.226860999999999979e+00 -3.936819999999999764e-01 -1.639100000000000001e-01 -3.443809999999999927e-01 7.723290000000000433e-01
2.689889999999999781e-01 -6.774900000000000366e-01 -8.311999999999999944e-03 -1.870600000000000041e-01 -1.019469999999999960e-01 -6.787899999999999490e-02 5.874810000000000310e-01 -3.662520000000000220e-01 2.358619999999999883e-01 -3.916399999999999743e-02 -2.168460000000000110e-01 -4.610429999999999806e-01 -2.027059999999999973e-01 5.092640000000000500e-01 1.234062999999999910e+00 -1.751759999999999984e-01 1.509899999999999957e-02 7.049619999999999775e-01 4.421999999999999716e-03 1.766699999999999937e-01 3.968430000000000013e-01 -7.461699999999999999e-01 -8.201500000000000457e-02 5.714730000000000087e-01 -1.510970000000000091e-01 3.942880000000000273e-01 -1.064129999999999937e-01 -4.286800000000000332e-02 6.667960000000000553e-01 -3.207220000000000071e-01 -4.139570000000000194e-01 1.674420000000000075e-01 -2.131000000000000082e-03 3.310420000000000029e-01 1.494890000000000108e-01 -1.287409999999999943e-01 2.174480000000000024e-01 -1.644599999999999881e-02 -8.807930000000000481e-01 1.005230000000000068e+00 -7.319499999999999895e-01 -4.543989999999999974e-01 3.487629999999999897e-01 -1.764229999999999965e-01 -5.254240000000000022e-01 2.632729999999999793e-01 3.298550000000000093e-01 5.609779999999999767e-01 -2.245330000000000104e-01 -1.294589999999999907e-01 -3.527950000000000252e-01 -1.209799999999999938e-02 4.609860000000000069e-01 -7.812700000000000200e-01 -4.896989999999999954e-01 1.488539999999999863e-01 9.142029999999999879e-01 -3.421210000000000084e-01 -5.199129999999999585e-01 -5.284619999999999873e-01
-9.602349999999999497e-01 -6.273499999999999910e-02 -1.609191000000000038e+00 -5.638969999999999816e-01 1.685520000000000074e-01 3.475700000000000317e-02 7.823350000000000026e-01 3.419000000000000164e-03 1.141339999999999993e-01 1.043045999999999918e+00 4.891269999999999785e-01 4.220729999999999760e-01 -5.985599999999999810e-01 -2.995670000000000277e-01 -2.310059999999999891e-01 2.644549999999999956e-01 -1.145319999999999949e-01 -4.511000000000000253e-03 6.006199999999999734e-02 -6.669939999999999758e-01 2.826819999999999888e-01 1.316872999999999960e+00 -2.010100000000000081e-02 -2.621870000000000034e-01 5.909330000000000416e-01 8.140799999999999426e-02 -1.339879999999999960e-01 -2.528690000000000104e-01 4.022129999999999872e-01 4.618240000000000123e-01 -9.914900000000000102e-02 -1.294499999999999991e-02 -1.477099999999999941e-02 -2.591899999999999760e-01 -1.079774999999999929e+00 -1.273999999999999959e-02 -4.661719999999999753e-01 5.580389999999999517e-01 1.031635999999999997e+00 -6.766199999999999992e-02 -7.346709999999999630e-01 -5.955080000000000373e-01 2.737439999999999873e-01 4.175510000000000055e-01 -5.983159999999999590e-01 -8.229940000000000033e-01 -6.857199999999999407e-02 -1.177316000000000029e+00 8.338980000000000281e-01 -1.529300000000000104e-01 4.187429999999999763e-01 -6.071300000000000308e-02 -2.919089999999999741e-01 4.703999999999999848e-01 -1.284079999999999944e-01 4.358170000000000099e-01 1.249689999999999968e-01 -8.854969999999999786e-01 9.486059999999999492e-01 1.278315000000000090e+00
-1.980149999999999966e-01 6.827299999999999480e-01 2.049999999999999878e-01 6.457999999999999852e-02 -6.782249999999999668e-01 -3.365940000000000043e-01 -2.794130000000000225e-01 3.186610000000000276e-01 -6.492539999999999978e-01 7.405490000000000128e-01 8.742459999999999676e-01 3.293399999999999800e-02 5.024119999999999697e-01 1.778820000000000123e-01 1.267911000000000010e+00 4.677919999999999856e-01 1.064353000000000105e+00 1.368484999999999951e+00 -8.469649999999999679e-01 -4.257299999999999973e-01 1.276153000000000093e+00 2.861609999999999987e-01 1.440400000000000014e-01 -2.809079999999999910e-01 8.476699999999999513e-02 -8.995459999999999567e-01 -4.014159999999999950e-01 -4.422860000000000125e-01 -3.602679999999999771e-01 -5.774390000000000356e-01 1.038877000000000050e+00 -5.366429999999999811e-01 -7.197179999999999689e-01 -1.125823000000000018e+00 -1.166620000000000018e-01 -3.193289999999999740e-01 -3.379940000000000166e-01 1.576660000000000006e-01 -2.846469999999999834e-01 1.826129999999999975e-01 -5.348200000000000176e-02 2.475999999999999868e-01 4.699710000000000276e-01 1.419420000000000126e-01 -3.913949999999999929e-01 1.694340000000000013e-01 3.635390000000000010e-01 4.920189999999999841e-01 1.840289999999999981e-01 -1.125299000000000049e+00 -3.783549999999999969e-01 -1.144093000000000027e+00 1.478800000000000080e-02 -5.804700000000000137e-02 4.135119999999999907e-01 7.713349999999999929e-01 -9.672500000000000542e-02 -2.301070000000000060e-01 -5.153290000000000370e-01 -3.962749999999999884e-01
-2.404139999999999888e-01 -7.491499999999999548e-02 1.128505000000000091e+00 1.298025999999999902e+00 5.657469999999999999e-01 1.739759999999999918e-01 -9.441359999999999753e-01 7.062439999999999829e-01 -6.306129999999999791e-01 -1.429600000000000037e-01 1.844870000000000121e-01 -1.140930999999999917e+00 3.372720000000000162e-01 -1.753676999999999930e+00 5.097009999999999597e-01 1.350750000000000006e-01 -2.132600000000000121e-02 7.866099999999999481e-02 3.054689999999999905e-01 -2.226049999999999973e-01 2.755909999999999749e-01 2.791109999999999980e-01 -5.232639999999999514e-01 9.390260000000000273e-01 8.008859999999999868e-01 -1.230458000000000052e+00 -5.430380000000000207e-01 -1.121437999999999935e+00 -7.397449999999999859e-01 3.094239999999999768e-01 5.675310000000000077e-01 -3.618990000000000262e-01 5.916439999999999477e-01 4.398150000000000115e-01 1.127769999999999939e+00 1.110720000000000041e-01 2.050980000000000025e-01 2.953160000000000229e-01 -7.038210000000000299e-01 -2.418379999999999974e-01 1.709608000000000017e+00 -7.364479999999999915e-01 -4.137600000000000167e-01 2.521220000000000128e-01 7.761500000000000343e-02 -1.751330000000000109e-01 -5.824089999999999545e-01 -9.402800000000000047e-02 -5.481589999999999518e-01 -2.800400000000000111e-02 6.409999999999999899e-03 -2.471009999999999873e-01 1.044629000000000030e+00 7.274709999999999788e-01 -4.997399999999999759e-02 3.857880000000000198e-01 -4.772710000000000008e-01 -2.433720000000000050e-01 -7.334089999999999776e-01 -6.029449999999999532e-01
1.212590000000000057e-01 2.652410000000000045e-01 1.200849999999999973e-01 -6.019280000000000186e-01 4.576330000000000120e-01 4.097799999999999776e-01 9.099439999999999751e-01 3.756160000000000054e-01 6.102079999999999727e-01 2.917930000000000246e-01 -1.012053000000000091e+00 8.237039999999999917e-01 -1.064162999999999970e+00 -8.035499999999999865e-01 9.758059999999999512e-01 -6.743200000000000582e-02 -2.595419999999999949e-01 1.660949999999999926e-01 2.479889999999999872e-01 -2.281229999999999924e-01 4.052740000000000231e-01 1.306470000000000131e-01 7.507169999999999677e-01 9.425559999999999494e-01 -4.483610000000000095e-01 9.406910000000000549e-01 -2.539239999999999831e-01 1.045899999999999955e-02 3.484799999999999703e-02 -3.070330000000000004e-01 -4.355419999999999847e-01 -1.928809999999999969e-01 -1.506919999999999926e-01 6.640319999999999556e-01 -3.114040000000000141e-01 -2.113379999999999981e-01 1.938169999999999893e-01 -5.874660000000000437e-01 -1.007250999999999896e+00 2.683800000000000074e-01 1.341873000000000093e+00 -5.673179999999999890e-01 3.102679999999999882e-01 -7.228890000000000038e-01 -2.030150000000000010e-01 -6.415760000000000352e-01 3.245779999999999776e-01 -5.704489999999999839e-01 -7.234702000000000410e+00 -2.424821000000000115e+00 8.572619999999999685e-01 5.345370000000000399e-01 -3.752869999999999817e-01 -1.186829999999999968e-01 6.920161000000000229e+00 2.696871999999999936e+00 -1.049320000000000030e+00 -1.095819999999999989e-01 -2.700540000000000163e-01 -8.717470000000000496e-01
1.995089999999999919e-01 -2.476799999999999835e-02 -4.014700000000000213e-02 -4.013570000000000193e-01 7.389700000000000435e-02 5.684479999999999533e-01 -4.192629999999999968e-01 2.507630000000000137e-01 8.184909999999999686e-01 2.585499999999999951e-02 -1.031463999999999936e+00 -1.173103000000000007e+00 1.562729999999999952e-01 1.047803999999999958e+00 5.850379999999999470e-01 -9.179199999999999859e-02 -5.917529999999999735e-01 -7.413000000000000145e-02 5.171050000000000368e-01 -2.329300000000000120e-02 -3.378829999999999889e-01 -2.513540000000000219e-01 -2.250500000000000070e-02 2.183529999999999915e-01 4.973969999999999780e-01 6.658709999999999907e-01 5.297600000000000225e-02 1.995909999999999906e-01 6.929180000000000339e-01 7.250919999999999588e-01 -5.266389999999999683e-01 3.743200000000000000e-02 -4.383770000000000167e-01 2.172439999999999927e-01 -6.956099999999999506e-01 2.500220000000000220e-01 1.186970000000000081e+00 -1.159469999999999945e-01 -8.887920000000000265e-01 -1.216269999999999990e-01 -2.287019999999999886e-01 -4.686600000000000210e-01 -8.655200000000000393e-02 -8.374479999999999702e-01 -1.303015999999999952e+00 -2.406230000000000036e-01 -5.555470000000000130e-01 1.454420000000000046e+00 -1.216887999999999970e+00 7.621219999999999661e-01 4.089470000000000049e-01 -6.239999999999999887e-04 8.312359999999999749e-01 -7.662179999999999547e-01 6.599979999999999736e-01 -8.328719999999999457e-01 6.965499999999999470e-02 -3.032239999999999935e-01 5.978679999999999550e-01 3.388840000000000185e-01
6.506539999999999546e-01 -8.961440000000000516e-01 1.287101000000000051e+00 -1.696479999999999932e-01 2.260510000000000019e-01 6.009660000000000002e-01 1.640270000000000061e-01 2.953270000000000062e-01 6.240970000000000129e-01 3.169390000000000263e-01 -1.876000000000000063e-03 6.803569999999999895e-01 5.158909999999999885e-01 2.004720000000000113e-01 2.865860000000000074e-01 -7.407040000000000290e-01 7.021990000000000176e-01 -8.172469999999999457e-01 -9.535420000000000007e-01 -1.845509999999999928e-01 5.245499999999999607e-01 3.891600000000000059e-01 1.714549999999999963e-01 5.779859999999999998e-01 -1.792300000000000004e-01 -2.111199999999999882e-02 -2.926909999999999790e-01 -7.652299999999999380e-02 -5.589699999999999669e-01 -1.447519999999999918e-01 -2.303399999999999892e-02 -3.349750000000000227e-01 1.820000000000000057e-04 -2.802350000000000119e-01 7.281079999999999774e-01 -3.845709999999999962e-01 -4.444150000000000045e-01 3.712059999999999804e-01 -5.077559999999999851e-01 4.626660000000000217e-01 -9.016140000000000265e-01 -1.157127999999999934e+00 -5.441129999999999578e-01 -8.710000000000000294e-04 -6.842209999999999681e-01 2.563819999999999988e-01 4.169619999999999993e-01 -4.507329999999999948e-01 4.697391999999999790e+00 -2.975989999999999913e+00 2.220188999999999968e+00 7.710169999999999524e-01 2.459074999999999900e+00 -3.306532999999999944e+00 -3.719589999999999841e-01 -6.733829999999999538e-01 -7.143969999999999487e-01 -4.440724000000000338e+00 9.786310000000000286e-01 1.658015999999999934e+00
-3.231269999999999976e-01 4.582939999999999792e-01 -1.331885999999999903e+00 2.491210000000000091e-01 2.613829999999999765e-01 -8.469400000000000539e-02 -7.262000000000000226e-03 -2.805813999999999808e+00 1.112519000000000036e+00 3.671760000000000024e-01 1.205931000000000086e+00 -2.077999999999999986e-02 -1.080730000000000024e-01 -1.918300000000000005e-01 -2.386330000000000118e-01 1.509739999999999971e-01 6.278829999999999689e-01 1.831625999999999976e+00 4.946630000000000194e-01 -1.753122000000000069e+00 1.781420000000000003e+00 -3.941479999999999984e-01 -9.619099999999999873e-02 -1.037074999999999969e+00 7.283560000000000034e-01 1.055088999999999944e+00 1.004604000000000052e+00 -4.093519999999999937e-01 1.076977000000000073e+00 -3.781880000000000241e-01 -9.005570000000000519e-01 -1.625149999999999928e-01 -1.973479999999999956e-01 -1.227319999999999939e-01 -1.579383999999999899e+00 -1.125731999999999955e+00 -9.515700000000000547e-02 7.916600000000000303e-01 1.204469999999999985e-01 -5.981600000000000111e-02 9.531060000000000088e-01 -8.023299999999999876e-02 2.028359999999999885e-01 -1.466530000000000056e-01 -1.050065999999999944e+00 2.184979999999999978e-01 1.088169999999999971e-01 4.852499999999999869e-02 -8.280899999999999928e-01 2.945780000000000065e-01 8.596299999999999775e-02 9.846000000000000585e-03 9.561400000000000454e-02 1.629919999999999980e-01 3.145919999999999828e-01 -6.016850000000000254e-01 -4.348079999999999723e-01 5.122529999999999584e-01 4.078620000000000023e-01 -1.686519999999999964e-01
5.022750000000000270e-01 -6.665799999999999503e-02 -5.347939999999999916e-01 5.275590000000000002e-01 7.348099999999999632e-01 -6.378759999999999986e-01 -1.049047000000000063e+00 -6.888500000000000179e-02 9.822410000000000307e-01 6.928700000000000137e-02 -4.800420000000000242e-01 3.672059999999999769e-01 6.288000000000000186e-03 1.461886000000000019e+00 -3.379179999999999962e-01 1.007038000000000100e+00 -1.672700000000000020e-01 5.474580000000000002e-01 -6.221870000000000456e-01 -6.884240000000000359e-01 -1.068019999999999942e-01 -8.026889999999999858e-01 8.797920000000000185e-01 3.159219999999999806e-01 7.160659999999999803e-01 6.894400000000000528e-01 1.054480000000000001e-01 8.374850000000000350e-01 3.872140000000000026e-01 6.318909999999999805e-01 -4.818490000000000273e-01 -9.828980000000000494e-01 8.784229999999999539e-01 -8.853499999999999703e-01 -1.334200000000000108e-01 1.073188000000000031e+00 3.093819999999999903e-01 1.039293999999999940e+00 -1.011110000000000064e-01 1.977750000000000064e-01 6.633699999999999319e-02 2.027190000000000103e-01 3.681380000000000208e-01 -8.916570000000000329e-01 -8.223510000000000542e-01 -4.423090000000000077e-01 -5.254739999999999966e-01 -1.512197000000000013e+00 1.336559999999999970e-01 -1.319379999999999997e-01 1.417200000000000126e-01 -8.785199999999999954e-02 -7.947870000000000212e-01 -4.602220000000000200e-01 7.797220000000000262e-01 -3.100399999999999823e-01 -3.042489999999999917e-01 -1.083388000000000018e+00 -1.728100000000000122e-02 -4.286960000000000215e-01
7.310050000000000159e-01 6.693200000000000260e-01 3.794199999999999795e-01 -1.422771000000000008e+00 6.203619999999999690e-01 1.153779999999999945e-01 -6.813789999999999569e-01 4.182589999999999919e-01 -1.107393999999999989e+00 -1.338930000000000120e-01 -2.091109999999999913e-01 -8.435430000000000428e-01 -2.583999999999999839e-02 -2.177209999999999979e-01 6.284299999999999609e-02 -1.217899999999999955e-01 -3.797119999999999940e-01 1.140238000000000085e+00 1.867500000000000063e-02 3.211499999999999910e-01 4.436740000000000128e-01 -3.930839999999999890e-01 1.724360000000000059e-01 2.680609999999999937e-01 -8.203669999999999574e-01 -2.300899999999999890e-01 1.880030000000000034e-01 4.178270000000000040e-01 -4.043950000000000045e-01 1.198325000000000085e+00 1.095404999999999962e+00 1.008069999999999938e-01 4.233689999999999953e-01 6.261339999999999684e-01 -3.450429999999999886e-01 2.471500000000000086e-02 -6.870000000000000238e-03 -9.023390000000000022e-01 -3.859859999999999958e-01 6.099999999999999737e-04 -4.210550000000000126e-01 -2.274059999999999970e-01 -1.329369999999999996e-01 1.485269999999999924e-01 8.286799999999999722e-02 8.051669999999999661e-01 2.618010000000000059e-01 1.109480000000000049e-01 -3.579629999999999757e-01 -3.202229999999999799e-01 -2.701749999999999985e-01 3.286430000000000184e-01 -1.448029999999999873e-01 -8.126290000000000457e-01 -3.102249999999999730e-01 3.256589999999999763e-01 -1.012178999999999940e+00 3.836519999999999930e-01 5.361709999999999532e-01 2.214689999999999992e-01
-1.019160000000000066e+00 2.142529999999999990e-01 1.078960000000000058e-01 -1.659930000000000017e-01 -2.736689999999999956e-01 -1.090769999999999934e-01 -8.928070000000000173e-01 5.288939999999999753e-01 1.527560000000000029e-01 2.803189999999999849e-01 3.082880000000000065e-01 -9.234919999999999796e-01 -5.672620000000000440e-01 2.462459999999999927e-01 -9.863049999999999873e-01 -1.752900000000000014e-01 -3.664859999999999784e-01 -7.883210000000000495e-01 1.161520000000000052e-01 -4.739889999999999937e-01 4.445270000000000055e-01 -1.572379999999999889e-01 -7.719099999999999573e-02 3.556119999999999837e-01 1.341831999999999914e+00 -5.053560000000000274e-01 -6.516220000000000345e-01 5.860400000000000331e-02 -1.056880000000000042e-01 1.625830000000000053e-01 9.579339999999999522e-01 1.131329999999999975e-01 -3.126639999999999975e-01 -2.436609999999999887e-01 1.073799999999999928e-02 2.188120000000000065e-01 6.452539999999999942e-01 1.500309999999999977e-01 -6.239540000000000086e-01 3.389980000000000215e-01 -2.294500000000000012e-02 2.921349999999999780e-01 -4.931539999999999813e-01 3.691900000000000182e-01 -1.489189999999999958e-01 2.239800000000000124e-02 1.175729999999999970e-01 7.952800000000000147e-02 2.247250000000000081e-01 -1.398260000000000058e-01 1.594486000000000070e+00 -1.883540999999999910e+00 -8.987559999999999993e-01 1.118195000000000050e+00 -5.233039999999999914e-01 2.751310000000000144e-01 -2.110579999999999956e-01 2.135193000000000119e+00 5.304290000000000393e-01 2.288840000000000041e-01
1.070259999999999961e-01 -1.856062000000000101e+00 1.014049999999999896e+00 -3.153659999999999797e-01 -4.988100000000000173e-02 5.156279999999999752e-01 -2.469369999999999898e-01 -5.662509999999999488e-01 -5.682960000000000234e-01 1.008599999999999948e-02 3.437600000000000100e-01 4.869589999999999752e-01 3.855900000000000299e-02 1.694519999999999915e-01 -8.058070000000000510e-01 -2.518540000000000223e-01 -4.693149999999999822e-01 -1.642999999999999929e-03 1.011098000000000052e+00 -4.822099999999999997e-02 -6.463759999999999506e-01 5.994390000000000551e-01 4.724889999999999923e-01 5.462029999999999941e-01 8.311200000000000532e-02 -9.042320000000000357e-01 1.300050000000000094e-01 -2.169969999999999954e-01 8.631389999999999896e-01 -2.693740000000000023e-01 3.336640000000000161e-01 -8.883800000000000030e-02 4.678700000000000081e-01 -2.321719999999999895e-01 2.612985000000000113e+00 -9.273280000000000411e-01 -2.332110000000000016e-01 -1.059900000000000078e-02 5.555510000000000170e-01 7.114960000000000173e-01 1.343300000000000050e-01 -1.062375999999999987e+00 -6.447810000000000485e-01 -4.461010000000000253e-01 1.108667999999999987e+00 -5.850090000000000012e-01 -1.688739999999999963e-01 5.327220000000000288e-01 4.538389999999999924e-01 -3.768469999999999875e-01 -1.227789999999999992e-01 -3.824600000000000222e-02 5.901049999999999907e-01 -3.850339999999999874e-01 2.881810000000000205e-01 -3.694399999999999767e-02 -5.349779999999999536e-01 -8.719270000000000076e-01 -1.640939999999999899e-01 -3.366399999999999948e-02
2.365420000000000023e-01 -3.150499999999999828e-02 6.106700000000000322e-02 3.340796000000000099e+00 1.383701999999999988e+00 1.045827999999999980e+00 -5.299120000000000497e-01 7.752199999999999369e-02 -2.488579999999999959e-01 -3.188300000000000023e-01 -1.488339999999999941e-01 -6.970220000000000304e-01 -8.447689999999999921e-01 1.841949999999999976e-01 2.598099999999999854e-01 3.621130000000000182e-01 9.487099999999999700e-02 -3.039700000000000180e-01 -1.028998999999999997e+00 -3.223409999999999886e-01 7.862600000000000144e-02 -9.255360000000000253e-01 -4.271019999999999817e-01 1.802410000000000123e-01 1.083760000000000001e-01 -7.781150000000000011e-01 -1.546810000000000129e-01 -3.831776000000000071e+00 -8.168570000000000553e-01 -7.832179999999999698e-01 1.000453000000000037e+00 -2.358599999999999863e-01 6.870039999999999480e-01 1.576220000000000121e-01 6.049130000000000340e-01 4.094709999999999739e-01 6.033420000000000449e-01 -5.990529999999999466e-01 -9.157600000000000462e-02 1.240669999999999967e-01 7.127879999999999772e-01 -7.248280000000000278e-01 2.398609999999999909e-01 -9.232000000000000622e-03 -4.489800000000000041e-02 3.465500000000000247e-01 1.867999999999999869e-02 3.035959999999999770e-01 1.629150000000000043e-01 -7.878300000000000580e-02 2.666839999999999766e-01 1.287836999999999898e+00 -7.950890000000000457e-01 4.400040000000000062e-01 4.720699999999999896e-02 1.068794000000000022e+00 -4.296349999999999891e-01 -5.378579999999999472e-01 9.730400000000000160e-02 -2.536450000000000093e-01