8.183438905999999236e+00 0.000000000000000000e+00 0.000000000000000000e+00 -3.991500138999999781e+00 7.106671899000000181e+00 0.000000000000000000e+00 9.291629209999999750e-01 -4.102121739999999850e-01 3.988960666999999916e+01
7.945806815000000078e+00 0.000000000000000000e+00 0.000000000000000000e+00 -3.898077262000000154e+00 6.753352031999999561e+00 0.000000000000000000e+00 3.994356459999999776e-01 1.057099881999999935e+00 3.922371118699999926e+01
7.761062040999999745e+00 0.000000000000000000e+00 0.000000000000000000e+00 -3.931562163000000165e+00 6.662659538999999853e+00 0.000000000000000000e+00 -6.237541410000000397e-01 -3.043066689999999741e-01 3.855314882300000079e+01
8.280941924000000398e+00 0.000000000000000000e+00 0.000000000000000000e+00 -4.123788349999999880e+00 7.303375188999999601e+00 0.000000000000000000e+00 1.219921449999999963e+00 4.322220880000000043e-01 4.147235317300000190e+01
8.143359737999999126e+00 0.000000000000000000e+00 0.000000000000000000e+00 -4.071681874000000256e+00 7.052355022000000417e+00 0.000000000000000000e+00 0.000000000000000000e+00 0.000000000000000000e+00 4.009532121200000176e+01
8.419059688000000818e+00 0.000000000000000000e+00 0.000000000000000000e+00 -4.209531916999999623e+00 7.291118134999999612e+00 0.000000000000000000e+00 0.000000000000000000e+00 0.000000000000000000e+00 4.145278034500000075e+01
8.151037857000000386e+00 0.000000000000000000e+00 0.000000000000000000e+00 -4.146496604000000197e+00 7.117724673999999752e+00 0.000000000000000000e+00 -4.781972729999999783e-01 1.005388780000000093e+00 3.946295584700000347e+01
7.385186540000000299e+00 0.000000000000000000e+00 0.000000000000000000e+00 -3.553301111000000123e+00 6.368528481000000241e+00 0.000000000000000000e+00 8.330825370000000119e-01 5.718517599999999729e-02 3.551410001699999697e+01
8.417924979000000363e+00 0.000000000000000000e+00 0.000000000000000000e+00 -4.173959027999999627e+00 7.161706758000000228e+00 0.000000000000000000e+00 -6.226702629999999461e-01 1.850169779999999986e-01 3.975099880399999819e+01
8.036404320000000823e+00 0.000000000000000000e+00 0.000000000000000000e+00 -4.088181629000000150e+00 7.017623315999999889e+00 0.000000000000000000e+00 -4.714720620000000251e-01 9.912493209999999610e-01 3.890796171200000231e+01
8.092733106000000731e+00 0.000000000000000000e+00 0.000000000000000000e+00 -3.970156793000000128e+00 6.878228584999999562e+00 0.000000000000000000e+00 4.068216299999999896e-01 1.076646766000000088e+00 3.994899869200000353e+01
7.930227759000000098e+00 0.000000000000000000e+00 0.000000000000000000e+00 -3.890434442000000104e+00 6.740110978999999780e+00 0.000000000000000000e+00 3.986524869999999998e-01 1.055027265000000103e+00 3.914680667399999692e+01
8.160287586999999121e+00 0.000000000000000000e+00 0.000000000000000000e+00 -4.281404367999999572e+00 7.232959014999999603e+00 0.000000000000000000e+00 1.234395574999999967e+00 -8.528747559999999561e-01 4.238339610700000293e+01
8.006083922000000186e+00 0.000000000000000000e+00 0.000000000000000000e+00 -4.003043931999999749e+00 6.933470701000000069e+00 0.000000000000000000e+00 0.000000000000000000e+00 0.000000000000000000e+00 3.941941862400000218e+01
8.192305446000000657e+00 0.000000000000000000e+00 0.000000000000000000e+00 -4.124939679999999775e+00 7.245111113000000103e+00 0.000000000000000000e+00 5.586787349999999819e-01 -1.004628005999999907e+00 3.932712955400000254e+01
8.501491849000000656e+00 0.000000000000000000e+00 0.000000000000000000e+00 -4.170686858999999913e+00 7.225643486000000060e+00 0.000000000000000000e+00 4.273699289999999817e-01 1.131027502000000018e+00 4.196679691700000348e+01
7.079417323000000373e+00 0.000000000000000000e+00 0.000000000000000000e+00 -3.453009858999999793e+00 6.147916141999999695e+00 0.000000000000000000e+00 8.038102499999999484e-01 -3.548707580000000084e-01 3.450812985599999649e+01
8.216262105000000204e+00 0.000000000000000000e+00 0.000000000000000000e+00 -4.162155261999999745e+00 7.053436346999999884e+00 0.000000000000000000e+00 -6.603384289999999490e-01 -3.221547960000000210e-01 4.081435943099999974e+01
7.093602908000000262e+00 0.000000000000000000e+00 0.000000000000000000e+00 -3.459928926999999987e+00 6.160235205000000214e+00 0.000000000000000000e+00 8.054209079999999910e-01 -3.555818410000000096e-01 3.457727651300000105e+01
7.276018490000000227e+00 0.000000000000000000e+00 0.000000000000000000e+00 -3.548902747000000080e+00 6.318648764999999834e+00 0.000000000000000000e+00 8.261327139999999902e-01 -3.647258070000000130e-01 3.546644864400000330e+01
8.598004824000000212e+00 0.000000000000000000e+00 0.000000000000000000e+00 -4.218034477999999865e+00 7.307672424999999805e+00 0.000000000000000000e+00 4.322216349999999929e-01 1.143867463000000084e+00 4.244322393699999907e+01
8.854787232999999702e+00 0.000000000000000000e+00 0.000000000000000000e+00 -4.344007547000000358e+00 7.525918607000000371e+00 0.000000000000000000e+00 4.451300850000000087e-01 1.178029463999999971e+00 4.371080560499999734e+01
8.860225966999999869e+00 0.000000000000000000e+00 0.000000000000000000e+00 -4.346675697000000227e+00 7.530541130999999666e+00 0.000000000000000000e+00 4.454034900000000130e-01 1.178753026000000093e+00 4.373765339199999858e+01
7.485548770000000296e+00 0.000000000000000000e+00 0.000000000000000000e+00 -3.601589291999999887e+00 6.455074665999999795e+00 0.000000000000000000e+00 8.444038520000000103e-01 5.796230299999999974e-02 3.599672482999999801e+01
8.004145743000000479e+00 0.000000000000000000e+00 0.000000000000000000e+00 -3.872129194999999857e+00 7.059024567999999888e+00 0.000000000000000000e+00 -7.632463440000000210e-01 3.794246800000000142e-01 4.023817251399999861e+01
8.102415397999999769e+00 0.000000000000000000e+00 0.000000000000000000e+00 -3.974906761000000177e+00 6.886457821999999673e+00 0.000000000000000000e+00 4.073083579999999815e-01 1.077934885999999981e+00 3.999679439700000216e+01
8.188425047000000845e+00 0.000000000000000000e+00 0.000000000000000000e+00 -4.094214539000000208e+00 7.091382716000000030e+00 0.000000000000000000e+00 0.000000000000000000e+00 0.000000000000000000e+00 4.031720850100000320e+01
8.199953916000000120e+00 0.000000000000000000e+00 0.000000000000000000e+00 -4.099978977000000135e+00 7.101367008000000425e+00 0.000000000000000000e+00 0.000000000000000000e+00 0.000000000000000000e+00 4.037397299799999928e+01
7.530520753000000234e+00 0.000000000000000000e+00 0.000000000000000000e+00 -3.950988748999999967e+00 6.674758381000000185e+00 0.000000000000000000e+00 1.139131604999999992e+00 -7.870544980000000468e-01 3.911247496499999698e+01
8.284068103999999266e+00 0.000000000000000000e+00 0.000000000000000000e+00 -4.125345141999999576e+00 7.306132322999999928e+00 0.000000000000000000e+00 1.220381989000000056e+00 4.323852579999999945e-01 4.148800961399999920e+01
8.222366059000000504e+00 0.000000000000000000e+00 0.000000000000000000e+00 -4.165247374999999863e+00 7.058676424999999810e+00 0.000000000000000000e+00 -6.608290020000000542e-01 -3.223941280000000020e-01 4.084468088300000232e+01
8.736826495000000747e+00 0.000000000000000000e+00 0.000000000000000000e+00 -4.286138021000000187e+00 7.425660645999999865e+00 0.000000000000000000e+00 4.392001990000000133e-01 1.162336118999999890e+00 4.312850376299999766e+01
7.843095034000000076e+00 0.000000000000000000e+00 0.000000000000000000e+00 -3.794218426000000033e+00 6.916990559000000260e+00 0.000000000000000000e+00 -7.478891319999999565e-01 3.717903089999999855e-01 3.942854380400000025e+01
8.845466602000000123e+00 0.000000000000000000e+00 0.000000000000000000e+00 -4.339435004000000262e+00 7.517996755000000419e+00 0.000000000000000000e+00 4.446615369999999956e-01 1.176789459000000093e+00 4.366479520400000069e+01
8.210922150000000030e+00 0.000000000000000000e+00 0.000000000000000000e+00 -4.159450172999999751e+00 7.048852142000000320e+00 0.000000000000000000e+00 -6.599092579999999986e-01 -3.219454190000000104e-01 4.078783315500000128e+01
7.881954724999999939e+00 0.000000000000000000e+00 0.000000000000000000e+00 -3.866752516000000028e+00 6.699082447000000329e+00 0.000000000000000000e+00 3.962258020000000158e-01 1.048605082999999993e+00 3.890851148800000203e+01
8.586983420999999339e+00 0.000000000000000000e+00 0.000000000000000000e+00 -4.212627566000000101e+00 7.298305041999999965e+00 0.000000000000000000e+00 4.316675890000000182e-01 1.142401189999999955e+00 4.238881784099999805e+01
7.098638546000000105e+00 0.000000000000000000e+00 0.000000000000000000e+00 -3.462385075999999895e+00 6.164608259999999618e+00 0.000000000000000000e+00 8.059926640000000253e-01 -3.558342629999999840e-01 3.460182238099999807e+01
8.036302054000000084e+00 0.000000000000000000e+00 0.000000000000000000e+00 -4.018153005000000277e+00 6.959640366000000355e+00 0.000000000000000000e+00 0.000000000000000000e+00 0.000000000000000000e+00 3.956820311999999973e+01
7.963952053999999947e+00 0.000000000000000000e+00 0.000000000000000000e+00 -4.051324594999999640e+00 6.954355879000000407e+00 0.000000000000000000e+00 -4.672215020000000107e-01 9.823127050000000082e-01 3.855718668200000110e+01
8.310619405000000626e+00 0.000000000000000000e+00 0.000000000000000000e+00 -4.077048094000000233e+00 7.063415931999999842e+00 0.000000000000000000e+00 4.177747720000000164e-01 1.105634078000000020e+00 4.102457345500000230e+01
8.561080657999999843e+00 0.000000000000000000e+00 0.000000000000000000e+00 -4.199920112000000039e+00 7.276289595999999804e+00 0.000000000000000000e+00 4.303654579999999785e-01 1.138955120000000099e+00 4.226095134300000211e+01
7.101595671000000110e+00 0.000000000000000000e+00 0.000000000000000000e+00 -3.725947450000000050e+00 6.294576003999999614e+00 0.000000000000000000e+00 1.074248692999999921e+00 -7.422252719999999915e-01 3.688469788799999804e+01
8.479882817000000017e+00 0.000000000000000000e+00 0.000000000000000000e+00 -4.160085836999999565e+00 7.207277397000000363e+00 0.000000000000000000e+00 4.262836429999999899e-01 1.128152663999999916e+00 4.186012601099999841e+01
8.050872094000000700e+00 0.000000000000000000e+00 0.000000000000000000e+00 -4.025438029000000029e+00 6.972258388000000195e+00 0.000000000000000000e+00 0.000000000000000000e+00 0.000000000000000000e+00 3.963994137600000300e+01
8.762395798000000013e+00 0.000000000000000000e+00 0.000000000000000000e+00 -4.298681884999999703e+00 7.447392674999999684e+00 0.000000000000000000e+00 4.404855679999999940e-01 1.165737825999999977e+00 4.325472416800000275e+01
7.764102856000000052e+00 0.000000000000000000e+00 0.000000000000000000e+00 -3.933102564999999995e+00 6.665269996000000141e+00 0.000000000000000000e+00 -6.239985310000000229e-01 -3.044258979999999726e-01 3.856825409999999721e+01
8.337239256000000154e+00 0.000000000000000000e+00 0.000000000000000000e+00 -4.133951674000000409e+00 7.093061872999999906e+00 0.000000000000000000e+00 -6.167019750000000133e-01 1.832435920000000107e-01 3.936998589299999907e+01
8.421468176999999500e+00 0.000000000000000000e+00 0.000000000000000000e+00 -4.074015371999999857e+00 7.427070006000000113e+00 0.000000000000000000e+00 -8.030407000000000517e-01 3.992072320000000230e-01 4.233612183399999651e+01
7.749169570000000284e+00 0.000000000000000000e+00 0.000000000000000000e+00 -3.925537732000000002e+00 6.652450177999999603e+00 0.000000000000000000e+00 -6.227983470000000299e-01 -3.038403729999999969e-01 3.849407286200000300e+01
8.004609794000000278e+00 0.000000000000000000e+00 0.000000000000000000e+00 -3.926925000000000221e+00 6.803330244999999721e+00 0.000000000000000000e+00 4.023916719999999780e-01 1.064922954999999893e+00 3.951398643999999649e+01
8.327877236000000849e+00 0.000000000000000000e+00 0.000000000000000000e+00 -4.218696729000000367e+00 7.149254885999999587e+00 0.000000000000000000e+00 -6.693089020000000389e-01 -3.265311590000000153e-01 4.136880864999999829e+01
8.130646671999999242e+00 0.000000000000000000e+00 0.000000000000000000e+00 -4.065325338000000066e+00 7.041345186000000034e+00 0.000000000000000000e+00 0.000000000000000000e+00 0.000000000000000000e+00 4.003272610799999853e+01
8.699192973000000606e+00 0.000000000000000000e+00 0.000000000000000000e+00 -4.267675656999999845e+00 7.393674917000000235e+00 0.000000000000000000e+00 4.373083620000000060e-01 1.157329403999999951e+00 4.294272950100000230e+01
8.227026972999999188e+00 0.000000000000000000e+00 0.000000000000000000e+00 -4.185152860999999724e+00 7.184080593000000015e+00 0.000000000000000000e+00 -4.826553290000000218e-01 1.014761648999999988e+00 3.983085441299999729e+01
8.272781323000000242e+00 0.000000000000000000e+00 0.000000000000000000e+00 -4.101990737000000387e+00 7.038223084000000185e+00 0.000000000000000000e+00 -6.119340500000000072e-01 1.818268759999999984e-01 3.906560361300000039e+01
7.524144631000000416e+00 0.000000000000000000e+00 0.000000000000000000e+00 -3.639921240000000058e+00 6.635701487000000398e+00 0.000000000000000000e+00 -7.174751769999999640e-01 3.566709379999999929e-01 3.782512705700000311e+01
8.715633149000000301e+00 0.000000000000000000e+00 0.000000000000000000e+00 -4.275740927000000191e+00 7.407647858999999890e+00 0.000000000000000000e+00 4.381348099999999857e-01 1.159516583999999906e+00 4.302388485000000173e+01
8.170936149999999287e+00 0.000000000000000000e+00 0.000000000000000000e+00 -4.156619021000000025e+00 7.135100446000000041e+00 0.000000000000000000e+00 -4.793646469999999771e-01 1.007843132999999947e+00 3.955929271899999833e+01
8.118636374999999461e+00 0.000000000000000000e+00 0.000000000000000000e+00 -4.130013716999999751e+00 7.089430752000000169e+00 0.000000000000000000e+00 -4.762963729999999951e-01 1.001392223000000081e+00 3.930608524200000176e+01
7.706692538999999620e+00 0.000000000000000000e+00 0.000000000000000000e+00 -4.043419639999999760e+00 6.830910145999999905e+00 0.000000000000000000e+00 1.165780870999999941e+00 -8.054671420000000248e-01 4.002748666200000116e+01
7.232595616000000227e+00 0.000000000000000000e+00 0.000000000000000000e+00 -3.527723092000000005e+00 6.280939420000000162e+00 0.000000000000000000e+00 8.212023999999999990e-01 -3.625491439999999899e-01 3.525478684600000179e+01
8.290453467000000742e+00 0.000000000000000000e+00 0.000000000000000000e+00 -4.067155029000000255e+00 7.046276365999999847e+00 0.000000000000000000e+00 4.167610310000000040e-01 1.102951228000000006e+00 4.092502623899999747e+01
8.286636871000000681e+00 0.000000000000000000e+00 0.000000000000000000e+00 -4.065282672000000375e+00 7.043032539999999564e+00 0.000000000000000000e+00 4.165691699999999886e-01 1.102443472999999896e+00 4.090618597899999997e+01
8.362184633000000034e+00 0.000000000000000000e+00 0.000000000000000000e+00 -4.146320635000000365e+00 7.114284618000000116e+00 0.000000000000000000e+00 -6.185471740000000329e-01 1.837918649999999987e-01 3.948778257899999744e+01
7.143008007999999798e+00 0.000000000000000000e+00 0.000000000000000000e+00 -3.436779578999999973e+00 6.159688681000000443e+00 0.000000000000000000e+00 8.057636999999999716e-01 5.530993199999999915e-02 3.434950484200000176e+01
8.512012856000000127e+00 0.000000000000000000e+00 0.000000000000000000e+00 -4.175848284999999827e+00 7.234585569000000049e+00 0.000000000000000000e+00 4.278988189999999858e-01 1.132427202999999993e+00 4.201873285700000338e+01
7.392998644000000397e+00 0.000000000000000000e+00 0.000000000000000000e+00 -3.557059819000000012e+00 6.375265157000000293e+00 0.000000000000000000e+00 8.339637779999999889e-01 5.724566700000000008e-02 3.555166709299999894e+01
8.111893823999999142e+00 0.000000000000000000e+00 0.000000000000000000e+00 -4.055948908999999603e+00 7.025104746000000233e+00 0.000000000000000000e+00 0.000000000000000000e+00 0.000000000000000000e+00 3.994039302800000257e+01
8.245193559000000505e+00 0.000000000000000000e+00 0.000000000000000000e+00 -4.105986184999999900e+00 7.271846925000000184e+00 0.000000000000000000e+00 1.214655116999999951e+00 4.303562089999999896e-01 4.129331933499999963e+01
8.697064412999999661e+00 0.000000000000000000e+00 0.000000000000000000e+00 -4.266631421999999674e+00 7.391865797000000349e+00 0.000000000000000000e+00 4.372013599999999833e-01 1.157046223000000040e+00 4.293222207000000168e+01
8.082078985000000770e+00 0.000000000000000000e+00 0.000000000000000000e+00 -3.964930063000000171e+00 6.869173364999999976e+00 0.000000000000000000e+00 4.062860469999999835e-01 1.075229355999999914e+00 3.989640564799999822e+01
8.347563526000000067e+00 0.000000000000000000e+00 0.000000000000000000e+00 -4.203114281999999591e+00 7.382418255000000151e+00 0.000000000000000000e+00 5.692666440000000438e-01 -1.023667410999999916e+00 4.007244535000000241e+01
8.865399628000000476e+00 0.000000000000000000e+00 0.000000000000000000e+00 -4.349213806999999932e+00 7.534938363000000194e+00 0.000000000000000000e+00 4.456635700000000089e-01 1.179441323000000041e+00 4.376319267099999877e+01
8.603008984000000581e+00 0.000000000000000000e+00 0.000000000000000000e+00 -4.301506609999999675e+00 7.450422867000000338e+00 0.000000000000000000e+00 0.000000000000000000e+00 0.000000000000000000e+00 4.235848835099999832e+01
7.485329246000000047e+00 0.000000000000000000e+00 0.000000000000000000e+00 -3.601483669999999915e+00 6.454885361999999738e+00 0.000000000000000000e+00 8.443790880000000554e-01 5.796060299999999943e-02 3.599566917899999652e+01
8.810755521999999118e+00 0.000000000000000000e+00 0.000000000000000000e+00 -4.322406340999999763e+00 7.488494887999999960e+00 0.000000000000000000e+00 4.429166110000000156e-01 1.172171542000000066e+00 4.349344729900000317e+01
8.186188569000000470e+00 0.000000000000000000e+00 0.000000000000000000e+00 -3.992841295999999929e+00 7.109059764999999587e+00 0.000000000000000000e+00 9.294751230000000142e-01 -4.103500059999999894e-01 3.990300971300000299e+01
7.206707740999999778e+00 0.000000000000000000e+00 0.000000000000000000e+00 -3.781095908000000172e+00 6.387743222000000110e+00 0.000000000000000000e+00 1.090148852000000002e+00 -7.532110899999999720e-01 3.743063532600000087e+01
8.344202949999999674e+00 0.000000000000000000e+00 0.000000000000000000e+00 -4.377898030999999968e+00 7.395974383000000429e+00 0.000000000000000000e+00 1.262216200999999982e+00 -8.720967219999999909e-01 4.333862686399999831e+01
8.042348835000000307e+00 0.000000000000000000e+00 0.000000000000000000e+00 -4.004972470000000229e+00 7.092948059000000249e+00 0.000000000000000000e+00 1.184772691000000044e+00 4.197687700000000133e-01 4.027743876499999942e+01
8.349324495999999485e+00 0.000000000000000000e+00 0.000000000000000000e+00 -4.096036151999999930e+00 7.096312415999999956e+00 0.000000000000000000e+00 4.197204769999999807e-01 1.110783354000000056e+00 4.121563741500000333e+01
8.411554283999999271e+00 0.000000000000000000e+00 0.000000000000000000e+00 -4.126565023999999582e+00 7.149203163000000139e+00 0.000000000000000000e+00 4.228487679999999860e-01 1.119062323999999942e+00 4.152282877599999722e+01
8.665812536000000676e+00 0.000000000000000000e+00 0.000000000000000000e+00 -4.251299784000000415e+00 7.365303997999999908e+00 0.000000000000000000e+00 4.356303280000000111e-01 1.152888514000000031e+00 4.277795018300000152e+01
8.181319880000000211e+00 0.000000000000000000e+00 0.000000000000000000e+00 -4.119408295000000386e+00 7.235395698999999681e+00 0.000000000000000000e+00 5.579295680000000424e-01 -1.003280839000000091e+00 3.927439339099999671e+01
8.147430681999999535e+00 0.000000000000000000e+00 0.000000000000000000e+00 -4.274658819999999970e+00 7.221563158000000371e+00 0.000000000000000000e+00 1.232450728000000106e+00 -8.515310130000000033e-01 4.231661913300000322e+01
7.227836414999999626e+00 0.000000000000000000e+00 0.000000000000000000e+00 -3.525401775999999820e+00 6.276806428999999632e+00 0.000000000000000000e+00 8.206620310000000140e-01 -3.623105790000000215e-01 3.523158845199999689e+01
8.276768327999999286e+00 0.000000000000000000e+00 0.000000000000000000e+00 -4.060441332999999986e+00 7.034645002999999619e+00 0.000000000000000000e+00 4.160730790000000123e-01 1.101130575000000000e+00 4.085747086800000005e+01
8.248951345000000046e+00 0.000000000000000000e+00 0.000000000000000000e+00 -4.178714822999999967e+00 7.081499166000000400e+00 0.000000000000000000e+00 -6.629656529999999881e-01 -3.234365209999999768e-01 4.097674353899999744e+01
8.574321954000000190e+00 0.000000000000000000e+00 0.000000000000000000e+00 -4.251507184000000272e+00 7.294764402000000203e+00 0.000000000000000000e+00 -6.342388789999999776e-01 1.884544160000000135e-01 4.048953424599999806e+01
8.354919311999999820e+00 0.000000000000000000e+00 0.000000000000000000e+00 -4.098780872999999936e+00 7.101067598000000203e+00 0.000000000000000000e+00 4.200017280000000186e-01 1.111527681000000101e+00 4.124325568399999753e+01
7.475567243000000417e+00 0.000000000000000000e+00 0.000000000000000000e+00 -3.786937556999999899e+00 6.417570062000000242e+00 0.000000000000000000e+00 -6.008090130000000029e-01 -2.931125869999999800e-01 3.713495072700000321e+01
8.217904151000000823e+00 0.000000000000000000e+00 0.000000000000000000e+00 -4.162987082999999977e+00 7.054845999000000312e+00 0.000000000000000000e+00 -6.604704000000000130e-01 -3.222191790000000222e-01 4.082251631399999781e+01
7.096177608999999720e+00 0.000000000000000000e+00 0.000000000000000000e+00 -3.461184745999999812e+00 6.162471129000000047e+00 0.000000000000000000e+00 8.057132449999999668e-01 -3.557109030000000227e-01 3.458982670999999698e+01
7.228624470999999829e+00 0.000000000000000000e+00 0.000000000000000000e+00 -3.525786152999999867e+00 6.277490794000000207e+00 0.000000000000000000e+00 8.207515079999999630e-01 -3.623500820000000178e-01 3.523542977599999659e+01
8.004597718999999501e+00 0.000000000000000000e+00 0.000000000000000000e+00 -3.926919075999999897e+00 6.803319981999999655e+00 0.000000000000000000e+00 4.023910649999999922e-01 1.064921347999999934e+00 3.951392683099999914e+01
7.118037167999999859e+00 0.000000000000000000e+00 0.000000000000000000e+00 -3.491987594999999889e+00 6.049808645999999790e+00 0.000000000000000000e+00 3.578236730000000088e-01 9.469744770000000367e-01 3.513750593000000322e+01
8.844615900000000863e+00 0.000000000000000000e+00 0.000000000000000000e+00 -4.339017663999999996e+00 7.517273720999999576e+00 0.000000000000000000e+00 4.446187719999999954e-01 1.176676282999999934e+00 4.366059579699999915e+01
8.362250376000000429e+00 0.000000000000000000e+00 0.000000000000000000e+00 -4.210509315000000363e+00 7.395407010999999642e+00 0.000000000000000000e+00 5.702682220000000468e-01 -1.025468468999999994e+00 4.014294951400000144e+01
8.542039214000000769e+00 0.000000000000000000e+00 0.000000000000000000e+00 -4.190578703999999988e+00 7.260105767999999848e+00 0.000000000000000000e+00 4.294082439999999945e-01 1.136421871000000028e+00 4.216695508600000153e+01
7.270117080000000342e+00 0.000000000000000000e+00 0.000000000000000000e+00 -3.517031487000000123e+00 6.411669243999999601e+00 0.000000000000000000e+00 -6.932520300000000191e-01 3.446291380000000015e-01 3.654808828899999895e+01
8.281853419999999133e+00 0.000000000000000000e+00 0.000000000000000000e+00 -3.984722498000000002e+00 7.141758585999999909e+00 0.000000000000000000e+00 9.342306280000000074e-01 6.412827100000000058e-02 3.982601781299999999e+01
7.848395129000000026e+00 0.000000000000000000e+00 0.000000000000000000e+00 -3.850288749999999816e+00 6.670559255999999770e+00 0.000000000000000000e+00 3.945387619999999873e-01 1.044140357000000074e+00 3.874284776799999719e+01
7.840570582999999871e+00 0.000000000000000000e+00 0.000000000000000000e+00 -3.920287221999999794e+00 6.790131973000000265e+00 0.000000000000000000e+00 0.000000000000000000e+00 0.000000000000000000e+00 3.860448342099999763e+01
8.410409383999999378e+00 0.000000000000000000e+00 0.000000000000000000e+00 -4.278440924999999950e+00 7.344215477999999742e+00 0.000000000000000000e+00 -4.934138330000000239e-01 1.037380930000000090e+00 4.071869374399999941e+01
8.246888740999999357e+00 0.000000000000000000e+00 0.000000000000000000e+00 -4.177669959000000155e+00 7.079728476999999742e+00 0.000000000000000000e+00 -6.627998819999999514e-01 -3.233556479999999955e-01 4.096649753500000202e+01
8.411901667000000415e+00 0.000000000000000000e+00 0.000000000000000000e+00 -4.126735444000000363e+00 7.149498413999999968e+00 0.000000000000000000e+00 4.228662309999999813e-01 1.119108540000000040e+00 4.152454360000000122e+01
7.751325067999999874e+00 0.000000000000000000e+00 0.000000000000000000e+00 -4.066836695000000113e+00 6.870470669999999558e+00 0.000000000000000000e+00 1.172532372000000045e+00 -8.101319230000000315e-01 4.025930179400000242e+01
8.188010638999999813e+00 0.000000000000000000e+00 0.000000000000000000e+00 -4.165304947000000091e+00 7.150010389000000188e+00 0.000000000000000000e+00 -4.803663559999999944e-01 1.009949184000000111e+00 3.964195824099999754e+01
8.864073317000000785e+00 0.000000000000000000e+00 0.000000000000000000e+00 -4.348563140999999632e+00 7.533811095999999985e+00 0.000000000000000000e+00 4.455968960000000201e-01 1.179264872000000075e+00 4.375664546299999813e+01
8.214663180000000509e+00 0.000000000000000000e+00 0.000000000000000000e+00 -4.107333611999999690e+00 7.114105602000000417e+00 0.000000000000000000e+00 0.000000000000000000e+00 0.000000000000000000e+00 4.044639675100000176e+01
8.056133301999999219e+00 0.000000000000000000e+00 0.000000000000000000e+00 -4.081037968999999599e+00 6.915970148000000428e+00 0.000000000000000000e+00 -6.474689270000000274e-01 -3.158762399999999748e-01 4.001891809300000347e+01
8.846507531000000313e+00 0.000000000000000000e+00 0.000000000000000000e+00 -4.339945666000000202e+00 7.518881469000000095e+00 0.000000000000000000e+00 4.447138640000000143e-01 1.176927942999999921e+00 4.366993365100000091e+01
8.571436840000000501e+00 0.000000000000000000e+00 0.000000000000000000e+00 -4.285720529999999862e+00 7.423080593999999977e+00 0.000000000000000000e+00 0.000000000000000000e+00 0.000000000000000000e+00 4.220303712500000159e+01
7.127584879999999679e+00 0.000000000000000000e+00 0.000000000000000000e+00 -3.496671539999999911e+00 6.057923501000000321e+00 0.000000000000000000e+00 3.583036359999999809e-01 9.482446919999999446e-01 3.518463729700000187e+01
8.097306452999999848e+00 0.000000000000000000e+00 0.000000000000000000e+00 -4.048655219999999666e+00 7.012471715000000216e+00 0.000000000000000000e+00 0.000000000000000000e+00 0.000000000000000000e+00 3.986856943800000153e+01
7.540158565999999674e+00 0.000000000000000000e+00 0.000000000000000000e+00 -3.647668228000000124e+00 6.649824513999999631e+00 0.000000000000000000e+00 -7.190022080000000315e-01 3.574300539999999970e-01 3.790563177300000319e+01
8.122365937999999730e+00 0.000000000000000000e+00 0.000000000000000000e+00 -4.131910975000000263e+00 7.092687515999999803e+00 0.000000000000000000e+00 -4.765151759999999848e-01 1.001852245999999891e+00 3.932414178599999843e+01
7.418762787000000358e+00 0.000000000000000000e+00 0.000000000000000000e+00 -3.758161824000000095e+00 6.368804990000000110e+00 0.000000000000000000e+00 -5.962436570000000380e-01 -2.908853169999999766e-01 3.685277405600000122e+01
8.112445890000000048e+00 0.000000000000000000e+00 0.000000000000000000e+00 -3.979827548999999909e+00 6.894983004000000193e+00 0.000000000000000000e+00 4.078125910000000021e-01 1.079269330000000027e+00 4.004630895700000082e+01
7.274897977000000182e+00 0.000000000000000000e+00 0.000000000000000000e+00 -3.548356212999999926e+00 6.317675687000000373e+00 0.000000000000000000e+00 8.260054890000000372e-01 -3.646696389999999899e-01 3.546098677799999876e+01
8.851051392000000462e+00 0.000000000000000000e+00 0.000000000000000000e+00 -4.342174807000000136e+00 7.522743415999999961e+00 0.000000000000000000e+00 4.449422840000000212e-01 1.177532451999999896e+00 4.369236398299999991e+01
8.138992769999999766e+00 0.000000000000000000e+00 0.000000000000000000e+00 -4.069498388000000411e+00 7.048573117000000110e+00 0.000000000000000000e+00 0.000000000000000000e+00 0.000000000000000000e+00 4.007381964300000021e+01
8.148740659999999636e+00 0.000000000000000000e+00 0.000000000000000000e+00 -4.074372335999999706e+00 7.057015036000000130e+00 0.000000000000000000e+00 0.000000000000000000e+00 0.000000000000000000e+00 4.012181516399999737e+01
8.274364995999999195e+00 0.000000000000000000e+00 0.000000000000000000e+00 -4.059262300000000323e+00 7.032602348000000170e+00 0.000000000000000000e+00 4.159522629999999888e-01 1.100810837999999903e+00 4.084560704999999814e+01
8.688009382000000613e+00 0.000000000000000000e+00 0.000000000000000000e+00 -4.262189178999999939e+00 7.384169686999999982e+00 0.000000000000000000e+00 4.367461630000000206e-01 1.155841553999999993e+00 4.288752278300000143e+01
8.464176030999999156e+00 0.000000000000000000e+00 0.000000000000000000e+00 -4.152380355000000023e+00 7.193927782000000271e+00 0.000000000000000000e+00 4.254940629999999779e-01 1.126063052999999980e+00 4.178259096800000094e+01
8.338824043000000685e+00 0.000000000000000000e+00 0.000000000000000000e+00 -4.169414073999999637e+00 7.221632042000000418e+00 0.000000000000000000e+00 0.000000000000000000e+00 0.000000000000000000e+00 4.105772547099999770e+01
7.499873275999999755e+00 0.000000000000000000e+00 0.000000000000000000e+00 -3.628179596999999923e+00 6.614296068999999889e+00 0.000000000000000000e+00 -7.151607479999999573e-01 3.555203900000000194e-01 3.770311091699999650e+01
8.395944589000000846e+00 0.000000000000000000e+00 0.000000000000000000e+00 -4.227474820000000300e+00 7.425205499999999681e+00 0.000000000000000000e+00 5.725660169999999827e-01 -1.029600413000000048e+00 4.030469844999999651e+01
8.485103855000000195e+00 0.000000000000000000e+00 0.000000000000000000e+00 -4.162647189000000303e+00 7.211714895000000070e+00 0.000000000000000000e+00 4.265461039999999815e-01 1.128847264000000017e+00 4.188589916099999755e+01
8.099957678999999189e+00 0.000000000000000000e+00 0.000000000000000000e+00 -4.033660833999999973e+00 7.143756168000000351e+00 0.000000000000000000e+00 1.193259438999999977e+00 4.227756520000000018e-01 4.056595356500000094e+01