4.657469999999999999e+00 1.646530000000000049e+00 2.303153000000000006e+01 3.264240000000000030e+00 5.290799999999999947e-01 2.682813000000000159e+01 1.025090000000000057e+00 1.771609999999999907e+00 2.231643000000000043e+01 7.729390000000000427e+00 2.767100000000000115e-01 2.662352999999999881e+01 3.140690000000000204e+00 5.092810000000000059e+00 2.200253000000000014e+01 1.924670000000000103e+00 4.375519999999999854e+00 2.603153000000000006e+01 -8.245999999999999996e-01 5.399329999999999963e+00 2.202442999999999884e+01 6.291179999999999772e+00 3.785210000000000186e+00 2.650322999999999851e+01 -9.433899999999999508e-01 2.920450000000000212e+00 2.117842999999999876e+01 2.301369999999999916e+00 6.468199999999999505e-01 2.431333000000000055e+01 1.458990000000000009e+00 6.345150000000000290e+00 2.788313000000000130e+01 3.262290000000000134e+00 2.632890000000000175e+00 2.094253000000000142e+01 6.487680000000000113e+00 1.580880000000000063e+00 2.462893000000000043e+01 -2.664779999999999927e+00 6.160779999999999923e+00 2.774153000000000091e+01 -2.870880000000000098e+00 6.560889999999999667e+00 2.072753000000000156e+01 -5.094100000000000295e-01 5.247650000000000148e+00 2.480253000000000085e+01 4.033520000000000216e+00 2.887669999999999959e+00 2.755413000000000068e+01 1.344729999999999981e+00 6.670289999999999608e+00 2.130332999999999899e+01 3.809509999999999952e+00 5.255620000000000402e+00 2.435352999999999923e+01 2.298300000000000065e-01 2.470489999999999853e+00 2.771263000000000076e+01
-1.414999999999999938e-02 5.189680000000000071e+00 2.141433999999999926e+01 1.869380000000000042e+00 4.360839999999999606e+00 2.582804000000000144e+01 4.316860000000000142e+00 5.804009999999999891e+00 2.223313999999999879e+01 -2.731000000000000094e-02 5.882229999999999848e+00 2.797904000000000124e+01 1.746420000000000083e+00 1.955179999999999918e+00 2.049963999999999942e+01 3.809219999999999828e+00 1.472809999999999953e+00 2.454713999999999885e+01 5.999929999999999986e+00 1.938790000000000013e+00 2.026704000000000150e+01 2.930109999999999992e+00 2.267710000000000115e+00 2.849073999999999884e+01 2.143310000000000048e+00 6.221919999999999895e+00 1.962394000000000105e+01 1.279209999999999958e+00 1.991120000000000001e+00 2.513174000000000063e+01 -2.031190000000000051e+00 6.999900000000000233e+00 2.962623999999999924e+01 -2.188750000000000195e+00 6.098609999999999864e+00 2.010063999999999851e+01 7.517800000000000260e+00 1.480869999999999909e+00 2.262724000000000046e+01 2.592740000000000045e+00 4.782499999999999751e+00 2.853084000000000131e+01 3.955049999999999955e+00 3.018759999999999888e+00 2.171923999999999921e+01 -1.100000000000000006e-01 5.658150000000000013e+00 2.402093999999999951e+01 -2.289060000000000095e+00 5.306460000000000399e+00 2.730574000000000012e+01 -4.077000000000000068e-02 3.425530000000000186e+00 1.901953999999999922e+01 4.202639999999999709e+00 4.507089999999999819e+00 2.477324000000000126e+01 5.202589999999999826e+00 1.244969999999999910e+00 2.697683999999999926e+01
2.249099999999999877e+00 2.970629999999999882e+00 2.023631999999999920e+01 -1.673349999999999893e+00 4.509330000000000283e+00 2.627402000000000015e+01 3.555919999999999970e+00 2.477809999999999846e+00 2.428221999999999881e+01 1.617050000000000098e+00 5.154849999999999710e+00 2.249731999999999843e+01 4.683449999999999669e+00 4.872099999999999764e-01 1.927871999999999986e+01 9.988399999999999501e-01 8.458599999999999453e-01 2.823031999999999897e+01 2.769699999999999940e-01 -8.568000000000000616e-02 2.058511999999999986e+01 5.453120000000000189e+00 6.946999999999999842e-01 2.709242000000000061e+01 4.149930000000000341e+00 4.069060000000000343e+00 2.180331999999999937e+01 1.000850000000000017e+00 5.352020000000000444e+00 2.534112000000000009e+01 3.062030000000000030e+00 2.113350000000000062e+00 2.693741999999999948e+01 3.569999999999999823e-03 4.400170000000000137e+00 2.033922000000000097e+01 3.594689999999999941e+00 5.897380000000000067e+00 2.527021999999999835e+01 -1.589909999999999934e+00 2.304959999999999898e+00 2.509512000000000143e+01 2.738890000000000047e+00 5.757310000000000372e+00 1.848432000000000031e+01 5.659830000000000361e+00 1.387930000000000108e+00 2.163352000000000075e+01 -1.627389999999999892e+00 5.214430000000000121e+00 2.869191999999999965e+01 2.298490000000000144e+00 1.155140000000000056e+00 1.851632000000000033e+01 1.701999999999999957e+00 1.264650000000000052e+00 2.253841999999999857e+01 -1.285700000000000065e+00 1.604989999999999917e+00 2.911182000000000158e+01
-1.377809999999999979e+00 4.557479999999999976e+00 2.359847999999999857e+01 7.276580000000000048e+00 2.616909999999999847e+00 2.748977999999999966e+01 2.504509999999999792e+00 4.788909999999999556e+00 2.305348000000000042e+01 3.393969999999999931e+00 3.008799999999999919e+00 2.674627999999999872e+01 5.559699999999999642e-01 9.799999999999999822e-01 2.288037999999999883e+01 -2.648569999999999869e+00 7.324600000000000222e+00 2.731947999999999865e+01 4.523100000000000342e+00 1.141199999999999992e+00 2.310467999999999833e+01 6.450799999999999867e-01 7.497370000000000090e+00 2.902027999999999963e+01 -1.308019999999999960e+00 6.503180000000000405e+00 2.193928000000000011e+01 7.939899999999999736e+00 3.274099999999999788e-01 2.523697999999999908e+01 1.244169999999999998e+00 3.053780000000000161e+00 2.858978000000000108e+01 2.407910000000000217e+00 7.164460000000000051e+00 2.146328000000000102e+01 6.200029999999999930e+00 4.377460000000000129e+00 2.597167999999999921e+01 5.070979999999999599e+00 2.787409999999999943e+00 2.880727999999999867e+01 4.362199999999999966e-01 3.305060000000000109e+00 2.202237999999999829e+01 4.023559999999999803e+00 3.956999999999999962e-01 2.542877999999999972e+01 -1.735980000000000079e+00 6.439779999999999838e+00 2.926178000000000168e+01 4.394330000000000069e+00 3.408079999999999998e+00 2.217558000000000007e+01 2.466460000000000097e+00 5.218759999999999621e+00 2.526617999999999853e+01 3.039600000000000080e+00 7.239180000000000170e+00 2.843918000000000035e+01
-1.450899999999999967e-01 4.386420000000000208e+00 2.280435999999999908e+01 4.383230000000000182e+00 2.368990000000000151e+00 2.679406000000000176e+01 2.628839999999999844e+00 5.892800000000000260e+00 2.661055999999999955e+01 6.978900000000000103e-01 2.321810000000000151e+00 2.670825999999999922e+01 -2.963830000000000187e+00 7.017769999999999619e+00 2.138395999999999830e+01 3.265089999999999826e+00 3.667600000000000193e+00 2.248855999999999966e+01 5.600299999999999834e+00 5.868299999999999628e-01 2.256866000000000128e+01 -1.356880000000000086e+00 5.753549999999999720e+00 2.704726000000000141e+01 -6.715999999999999748e-01 5.938839999999999897e+00 2.089966000000000079e+01 2.658630000000000049e+00 2.186819999999999986e+00 2.464885999999999910e+01 -1.459810000000000052e+00 3.558679999999999843e+00 2.831546000000000163e+01 2.802239999999999842e+00 5.885880000000000223e+00 2.084446000000000154e+01 5.073900000000000077e-01 5.594960000000000377e+00 2.510735999999999990e+01 5.003569999999999851e+00 2.232399999999999940e-01 2.826045999999999836e+01 1.164909999999999890e+00 2.738469999999999960e+00 2.107115999999999900e+01 -3.708600000000000230e-01 1.643059999999999965e+00 2.408905999999999992e+01 6.966999999999999860e-01 1.739499999999999935e-01 2.805765999999999849e+01 5.548519999999999897e+00 2.698539999999999939e+00 2.099996000000000151e+01 -3.377569999999999961e+00 6.220270000000000188e+00 2.399345999999999890e+01 2.719510000000000094e+00 3.871480000000000032e+00 2.831086000000000169e+01
-9.771999999999999575e-01 4.352289999999999992e+00 2.468528999999999840e+01 6.980929999999999858e+00 2.381149999999999878e+00 2.796098999999999890e+01 5.321380000000000443e+00 5.160759999999999792e+00 2.895958999999999861e+01 2.979019999999999779e+00 3.267780000000000129e+00 2.575328999999999979e+01 -4.297599999999999754e-01 1.549520000000000008e+00 2.309468999999999994e+01 1.015579999999999927e+00 5.143580000000000041e+00 2.140298999999999907e+01 2.502050000000000107e+00 1.090740000000000043e+00 2.220058999999999827e+01 1.070319999999999938e+00 5.068030000000000257e+00 2.840669000000000111e+01 4.334500000000000020e-01 8.308000000000000107e-02 2.110629000000000133e+01 1.711130000000000040e+00 1.080920000000000103e+00 2.513328999999999880e+01 9.121700000000000363e-01 2.712239999999999984e+00 2.917008999999999830e+01 4.796260000000000190e+00 4.373000000000000220e-01 2.114988999999999919e+01 1.559320000000000039e+00 5.554909999999999570e+00 2.582088999999999857e+01 3.025910000000000100e+00 6.780739999999999768e+00 2.913389000000000095e+01 -1.363120000000000109e+00 3.933230000000000004e+00 2.201069000000000031e+01 6.968499999999999694e+00 8.870500000000000052e-01 2.544098999999999933e+01 -1.172789999999999999e+00 6.802019999999999733e+00 2.927188999999999908e+01 2.989450000000000163e+00 3.850950000000000095e+00 2.158489000000000146e+01 5.483430000000000248e+00 4.125740000000000407e+00 2.653388999999999953e+01 4.710989999999999789e+00 2.628289999999999793e+00 2.907518999999999920e+01
1.825299999999999978e-01 2.879890000000000061e+00 2.190061000000000035e+01 -1.878279999999999950e+00 7.563489999999999824e+00 2.658850999999999942e+01 4.103369999999999962e+00 2.951189999999999980e+00 2.181880999999999915e+01 1.696870000000000100e+00 7.652260000000000062e+00 2.551441000000000159e+01 -2.075820000000000221e+00 6.775839999999999641e+00 2.230220999999999876e+01 4.086570000000000036e+00 3.967779999999999863e+00 2.704651000000000138e+01 2.026199999999999779e+00 6.401530000000000165e+00 2.149880999999999887e+01 -9.802600000000000202e-01 3.668880000000000141e+00 2.602450999999999937e+01 1.999970000000000026e+00 3.901889999999999858e+00 2.042771000000000114e+01 -7.935999999999999999e-02 1.923359999999999959e+00 2.434731000000000023e+01 3.745140000000000136e+00 6.437310000000000088e+00 2.796950999999999965e+01 -1.914379999999999971e+00 4.290090000000000181e+00 2.098210999999999871e+01 -3.105239999999999778e+00 5.759240000000000137e+00 2.457330999999999932e+01 9.171999999999999598e-02 5.839199999999999946e+00 2.726060999999999979e+01 -2.203100000000000058e-01 7.413969999999999949e+00 2.052320999999999884e+01 3.551829999999999821e+00 2.238630000000000120e+00 2.441071000000000168e+01 5.937960000000000349e+00 2.265350000000000197e+00 2.797051000000000087e+01 -3.803469999999999906e+00 7.493699999999999584e+00 2.054251000000000005e+01 2.670840000000000103e+00 5.827379999999999782e+00 2.398530999999999835e+01 1.927899999999999947e+00 2.597440000000000193e+00 2.785980999999999952e+01
1.031399999999999956e-01 2.349610000000000198e+00 1.896621999999999986e+01 2.367929999999999868e+00 1.020199999999999996e-01 2.704822000000000060e+01 2.804190000000000182e+00 1.906579999999999941e+00 1.663342000000000098e+01 3.579169999999999963e+00 4.921920000000000073e+00 1.885022000000000020e+01 -1.501859999999999973e+00 4.699760000000000382e+00 1.614621999999999957e+01 4.919170000000000265e+00 4.812899999999999956e+00 2.468092000000000041e+01 6.425999999999999768e-02 1.508760000000000101e+00 2.488052000000000064e+01 2.598529999999999784e+00 5.126000000000000334e+00 2.727001999999999882e+01 3.421780000000000044e+00 4.993599999999999817e+00 1.587522000000000055e+01 5.661599999999999966e+00 3.479099999999999970e-01 1.999452000000000140e+01 5.023249999999999993e+00 3.967729999999999979e+00 2.712742000000000075e+01 1.609399999999999997e-01 2.352170000000000094e+00 1.627751999999999910e+01 2.375529999999999919e+00 5.594310000000000116e+00 2.447762000000000171e+01 9.489699999999999802e-01 2.692670000000000119e+00 2.717482000000000042e+01 3.287999999999999950e-02 6.342600000000000016e+00 1.497861999999999938e+01 2.633550000000000058e+00 4.350499999999999923e-01 2.443891999999999953e+01 6.412299999999999667e-01 6.347209999999999575e+00 2.829222000000000037e+01 -1.152830000000000021e+00 4.784309999999999619e+00 1.921471999999999980e+01 2.981549999999999923e+00 2.222890000000000033e+00 1.926782000000000039e+01 6.155929999999999680e+00 3.135130000000000194e+00 2.308632000000000062e+01
1.695929999999999938e+00 2.612099999999999977e-01 2.160033999999999921e+01 5.240910000000000402e+00 2.717369999999999841e+00 2.640744000000000113e+01 1.289800000000000058e+00 7.165879999999999583e+00 2.310033999999999921e+01 1.437580000000000080e+00 2.464700000000000113e+00 2.690353999999999957e+01 -9.603000000000000425e-02 3.881219999999999892e+00 2.181744000000000128e+01 2.757579999999999920e+00 5.988310000000000244e+00 2.710493999999999915e+01 3.975579999999999892e+00 3.480919999999999792e+00 2.210734000000000066e+01 -1.389769999999999950e+00 6.563410000000000188e+00 2.628183999999999898e+01 4.158940000000000303e+00 1.075180000000000025e+00 2.093423999999999907e+01 1.450499999999999901e+00 1.364829999999999988e+00 2.448704000000000036e+01 -9.942699999999999871e-01 1.320899999999999963e+00 2.772203999999999979e+01 -5.412900000000000489e-01 1.094789999999999930e+00 2.118364000000000047e+01 5.734600000000000364e+00 2.896780000000000133e+00 2.387013999999999925e+01 3.883739999999999970e+00 1.162090000000000067e+00 2.783884000000000114e+01 2.039930000000000021e+00 4.755399999999999849e+00 2.060203999999999880e+01 -7.661599999999999522e-01 5.872700000000000031e+00 2.378694000000000131e+01 -2.900110000000000188e+00 5.064169999999999838e+00 2.780694000000000088e+01 -2.507849999999999913e+00 4.811609999999999943e+00 2.060653999999999897e+01 3.708569999999999922e+00 6.645240000000000258e+00 2.459224000000000032e+01 7.615600000000000147e-01 4.679190000000000182e+00 2.775753999999999877e+01
-3.670319999999999805e+00 7.475679999999999659e+00 2.234480999999999895e+01 -1.294589999999999907e+00 2.703930000000000167e+00 2.677661000000000158e+01 4.461829999999999963e+00 1.062670000000000003e+00 2.090491000000000099e+01 2.420889999999999986e+00 2.172200000000000131e+00 2.582180999999999926e+01 -1.647950000000000026e+00 4.648719999999999963e+00 2.084551000000000087e+01 4.438719999999999999e+00 5.677990000000000315e+00 2.575271000000000043e+01 2.265010000000000190e+00 3.851069999999999993e+00 2.193071000000000126e+01 7.835400000000000142e-01 6.310150000000000148e+00 2.616871000000000080e+01 2.292930000000000135e+00 2.063590000000000035e+00 2.004010999999999854e+01 2.364600000000000035e-01 2.976729999999999876e+00 2.377551000000000059e+01 7.231800000000000450e-01 1.124290000000000012e+00 2.742501000000000033e+01 6.749469999999999636e+00 2.013840000000000074e+00 2.050450999999999979e+01 5.124559999999999782e+00 4.097459999999999880e+00 2.383671000000000006e+01 4.607990000000000030e+00 1.583120000000000083e+00 2.764320999999999984e+01 8.108600000000000252e-01 5.460399999999999920e+00 2.045740999999999943e+01 3.710430000000000117e+00 6.115300000000000180e-01 2.385080999999999918e+01 -1.440720000000000001e+00 5.131579999999999586e+00 2.739571000000000112e+01 4.251719999999999722e+00 5.394940000000000069e+00 1.998871000000000109e+01 2.142679999999999918e+00 6.533500000000000085e+00 2.369421000000000177e+01 2.585539999999999949e+00 4.685979999999999812e+00 2.733390999999999948e+01
1.495449999999999946e+00 8.997699999999999587e-01 2.262189000000000050e+01 5.659650000000000070e+00 3.456290000000000084e+00 2.709579000000000093e+01 5.792320000000000135e+00 8.123000000000000220e-01 2.245138999999999996e+01 1.678739999999999899e+00 3.820790000000000131e+00 2.545869000000000071e+01 -1.270100000000000118e-01 4.321320000000000050e+00 2.230378999999999934e+01 4.365980000000000416e+00 7.193850000000000300e+00 2.683298999999999879e+01 4.125370000000000203e+00 3.930649999999999977e+00 2.193958999999999904e+01 1.031060000000000088e+00 6.965090000000000003e+00 2.646828999999999965e+01 3.813390000000000057e+00 1.505949999999999900e+00 2.093968999999999880e+01 2.347770000000000135e+00 1.239800000000000013e+00 2.468978999999999857e+01 2.855900000000000105e-01 2.744369999999999976e+00 2.770679000000000158e+01 -4.013700000000000045e-01 1.753949999999999898e+00 2.107948999999999984e+01 6.535219999999999807e+00 1.074330000000000007e+00 2.481099000000000032e+01 3.362639999999999851e+00 1.941559999999999953e+00 2.775658999999999921e+01 2.044449999999999878e+00 5.423250000000000348e+00 2.135339000000000098e+01 -5.970100000000000406e-01 5.103919999999999568e+00 2.471088999999999913e+01 -1.783109999999999973e+00 5.938550000000000217e+00 2.793508999999999887e+01 -2.140320000000000000e+00 5.605739999999999945e+00 2.104429000000000016e+01 4.116069999999999673e+00 4.317099999999999937e+00 2.448329000000000022e+01 2.618090000000000028e+00 5.246439999999999770e+00 2.775048999999999921e+01
6.068099999999999605e-01 5.215840000000000032e+00 2.103669000000000011e+01 1.740229999999999944e+00 4.694720000000000226e+00 2.571678999999999959e+01 4.002270000000000216e+00 5.651810000000000223e+00 2.230449000000000126e+01 7.613000000000000322e-02 5.988850000000000229e+00 2.803428999999999860e+01 1.513589999999999991e+00 1.691740000000000022e+00 2.052109000000000094e+01 3.557449999999999779e+00 1.737719999999999931e+00 2.470038999999999874e+01 5.995359999999999800e+00 1.989170000000000105e+00 2.046698999999999913e+01 3.030219999999999914e+00 2.097430000000000128e+00 2.852528999999999826e+01 2.073430000000000106e+00 6.271889999999999965e+00 1.948459000000000074e+01 1.031619999999999981e+00 2.142269999999999897e+00 2.530329000000000050e+01 -1.674940000000000095e+00 6.566329999999999778e+00 2.975968999999999909e+01 -2.052080000000000126e+00 5.851160000000000139e+00 2.012088999999999928e+01 -2.305300000000000127e-01 1.624810000000000088e+00 2.257469000000000037e+01 2.246719999999999828e+00 4.719490000000000407e+00 2.830139000000000138e+01 3.793019999999999836e+00 2.976210000000000022e+00 2.154079000000000121e+01 1.273000000000000000e-02 5.666280000000000427e+00 2.362588999999999828e+01 5.554199999999999804e+00 5.268390000000000128e+00 2.713429000000000002e+01 2.502300000000000080e-01 3.179679999999999840e+00 1.895298999999999978e+01 4.242869999999999919e+00 4.628809999999999647e+00 2.462309000000000125e+01 5.045399999999999885e+00 1.373750000000000027e+00 2.685339000000000098e+01
4.494229999999999947e+00 3.571190000000000087e+00 2.445105999999999824e+01 -3.241399999999999837e-01 5.749620000000000175e+00 2.807125999999999877e+01 6.330799999999999761e-01 4.157070000000000043e+00 2.351475999999999900e+01 3.451119999999999965e+00 6.130469999999999864e+00 2.801096000000000075e+01 6.241729999999999556e+00 4.233799999999999786e-01 2.382425999999999888e+01 1.840030000000000054e+00 2.301550000000000207e+00 2.824345999999999890e+01 2.087750000000000217e+00 8.573999999999999677e-02 2.419546000000000063e+01 5.690349999999999575e+00 2.232120000000000104e+00 2.799785999999999930e+01 -2.028410000000000046e+00 5.021239999999999704e+00 2.287285999999999930e+01 -1.711100000000000121e-01 5.982479999999999798e+00 2.539166000000000167e+01 1.721659999999999968e+00 4.840980000000000061e+00 2.921226000000000056e+01 2.952290000000000081e+00 5.302990000000000315e+00 2.298226000000000013e+01 3.555229999999999890e+00 5.990370000000000417e+00 2.562506000000000128e+01 5.609149999999999636e+00 4.837600000000000122e+00 2.898995999999999995e+01 4.303000000000000158e-01 1.714960000000000040e+00 2.282056000000000040e+01 2.559590000000000032e+00 2.325330000000000119e+00 2.547586000000000084e+01 3.927239999999999842e+00 1.000229999999999952e+00 2.926785999999999888e+01 4.061759999999999593e+00 1.150609999999999911e+00 2.256015999999999977e+01 6.745529999999999582e+00 2.639619999999999855e+00 2.578735999999999962e+01 7.960639999999999716e+00 1.147410000000000041e+00 2.939295999999999864e+01
6.576699999999999768e-01 3.073449999999999793e+00 1.998670999999999864e+01 2.578619999999999912e+00 4.721510000000000318e+00 2.913541000000000025e+01 4.248219999999999885e+00 1.457499999999999907e-01 2.971370999999999896e+01 -1.131969999999999921e+00 3.074260000000000215e+00 2.853481000000000023e+01 3.113989999999999814e+00 1.534829999999999917e+00 2.250610999999999962e+01 -2.887579999999999814e+00 5.003000000000000114e+00 2.232291000000000025e+01 2.541240000000000165e+00 6.638980000000000103e+00 1.968450999999999951e+01 7.516899999999999693e-01 5.149779999999999802e+00 2.335591000000000150e+01 2.253199999999999925e-01 5.185690000000000133e+00 1.851710999999999885e+01 3.381349999999999856e+00 3.540430000000000188e+00 2.397450999999999866e+01 4.295609999999999928e+00 2.787850000000000161e+00 2.916780999999999935e+01 4.587049999999999628e+00 5.152230000000000310e+00 1.985021000000000058e+01 -3.870000000000000107e-01 2.901730000000000143e+00 2.232630999999999943e+01 4.286200000000000010e-01 4.859969999999999679e+00 2.724230999999999980e+01 2.227219999999999978e+00 9.185299999999999576e-01 2.013400999999999996e+01 5.754039999999999822e+00 6.283400000000000096e-01 2.225721000000000060e+01 6.758650000000000269e+00 3.773599999999999732e-01 2.925521000000000171e+01 6.554929999999999701e+00 2.130889999999999951e+00 1.899890999999999863e+01 -2.210249999999999826e+00 6.688349999999999795e+00 2.410281000000000162e+01 5.007700000000000484e-01 4.802780000000000271e+00 3.068650999999999840e+01
1.687000000000000055e+00 1.324210000000000109e+00 2.208170000000000144e+01 2.126290000000000013e+00 6.325029999999999930e+00 2.582479999999999976e+01 5.779819999999999958e+00 1.454339999999999966e+00 2.245579999999999998e+01 -1.925859999999999905e+00 5.985310000000000130e+00 2.646330000000000027e+01 1.746600000000000097e-01 4.541330000000000311e+00 2.185069999999999979e+01 4.192499999999999893e+00 2.701820000000000110e+00 2.570990000000000109e+01 3.715549999999999908e+00 5.564890000000000114e+00 2.187059999999999960e+01 4.415499999999999980e-01 2.580950000000000077e+00 2.626160000000000139e+01 3.562059999999999782e+00 3.112439999999999873e+00 2.148470000000000013e+01 2.329219999999999846e+00 3.746070000000000011e+00 2.410109999999999886e+01 4.258939999999999948e+00 4.912079999999999558e+00 2.734440000000000026e+01 -3.107699999999999907e-01 2.296320000000000139e+00 2.052410000000000068e+01 -1.246269999999999989e+00 3.442619999999999791e+00 2.401729999999999876e+01 2.405100000000000016e-01 5.028710000000000235e+00 2.752899999999999991e+01 1.704290000000000083e+00 6.461549999999999905e+00 2.065650000000000119e+01 4.312459999999999738e+00 4.105500000000000260e-01 2.436510000000000176e+01 6.118420000000000414e+00 1.372710000000000097e+00 2.729799999999999827e+01 -1.912500000000000089e+00 6.143869999999999720e+00 2.058079999999999998e+01 8.207190000000000651e+00 -6.056000000000000272e-02 2.404769999999999897e+01 2.245319999999999983e+00 1.198460000000000081e+00 2.717379999999999995e+01
8.791299999999999670e-01 6.108799999999999564e+00 2.366528999999999883e+01 2.959169999999999856e+00 5.156869999999999621e+00 2.747719000000000023e+01 4.184689999999999799e+00 6.349890000000000256e+00 2.328159000000000134e+01 -3.271800000000000264e-01 5.311600000000000321e+00 2.935799000000000092e+01 2.764829999999999899e+00 2.114250000000000185e+00 2.191968999999999923e+01 4.582040000000000113e+00 1.158509999999999929e+00 2.670859000000000094e+01 6.701640000000000263e+00 2.668060000000000098e+00 2.264929000000000059e+01 2.329579999999999984e+00 1.627569999999999961e+00 2.919809000000000054e+01 2.539870000000000072e+00 6.972470000000000390e+00 2.157518999999999920e+01 2.147009999999999863e+00 2.077290000000000081e+00 2.655668999999999969e+01 -2.737629999999999786e+00 6.369930000000000092e+00 2.964449000000000112e+01 -1.692309999999999981e+00 6.922320000000000029e+00 2.199969000000000108e+01 6.541290000000000049e+00 1.453089999999999993e+00 2.489479000000000042e+01 1.624649999999999928e+00 4.003129999999999633e+00 3.066478999999999999e+01 4.676420000000000243e+00 3.995400000000000063e+00 2.174928999999999846e+01 3.986899999999999888e-01 5.555690000000000239e+00 2.647879000000000005e+01 3.371239999999999792e+00 6.677489999999999704e+00 2.973378999999999905e+01 6.931599999999999984e-01 3.624830000000000219e+00 2.203449000000000169e+01 4.705969999999999764e+00 5.527350000000000207e+00 2.563938999999999879e+01 4.972430000000000128e+00 1.679280000000000106e+00 2.927579000000000065e+01
1.963610000000000078e+00 4.616100000000000203e-01 6.876360000000000028e+00 -1.551860000000000017e+00 4.054170000000000051e+00 3.278269000000000233e+01 5.995790000000000397e+00 1.392700000000000049e-01 8.717589999999999506e+00 5.073750000000000426e+00 -1.655099999999999905e-01 3.339759000000000100e+01 3.410799999999999943e-01 3.348860000000000170e+00 9.281790000000000873e+00 6.387920000000000265e+00 1.227149999999999963e+00 8.911299999999999777e-01 4.016460000000000363e+00 3.119339999999999780e+00 7.098790000000000155e+00 1.933219999999999938e+00 4.164049999999999585e+00 7.726899999999999880e-01 -2.725449999999999928e+00 5.099960000000000271e+00 5.191180000000000128e+00 2.843789999999999818e+00 3.744209999999999816e+00 3.244809000000000054e+01 -2.461689999999999934e+00 5.131470000000000198e+00 1.146150000000000002e+00 1.261349999999999971e+00 1.017400000000000082e+00 9.538990000000000080e+00 4.444100000000000272e-01 1.842619999999999925e+00 3.302758999999999645e+01 3.755899999999999794e-01 6.117869999999999919e+00 1.717230000000000034e+00 4.717419999999999725e+00 7.974900000000000322e-01 6.289990000000000414e+00 4.860319999999999752e+00 2.844590000000000174e+00 9.431390000000000384e+00 8.732999999999999652e-01 2.449370000000000047e+00 2.543419999999999792e+00 1.319039999999999990e+00 3.195339999999999847e+00 6.788569999999999993e+00 1.042880000000000029e+00 5.328070000000000306e+00 1.055138999999999960e+01 3.139349999999999863e+00 -4.528999999999999693e-02 3.164348999999999990e+01
3.534009999999999874e+00 5.111989999999999590e+00 2.282872000000000057e+01 -1.155540000000000012e+00 2.684709999999999930e+00 2.667932000000000059e+01 -1.105029999999999957e+00 5.376789999999999736e+00 2.284731999999999985e+01 3.457889999999999908e+00 2.140169999999999906e+00 2.744541999999999859e+01 5.496710000000000207e+00 1.884789999999999965e+00 2.320771999999999835e+01 -2.226189999999999891e+00 6.319939999999999891e+00 2.682882000000000033e+01 8.650600000000000511e-01 2.364920000000000133e+00 2.300161999999999907e+01 1.598360000000000003e+00 5.916619999999999990e+00 2.729962000000000089e+01 1.006790000000000074e+00 -1.643000000000000016e-01 2.151821999999999946e+01 1.409459999999999935e+00 5.547460000000000058e+00 2.448852000000000118e+01 1.420179999999999998e+00 1.152719999999999967e+00 2.858172000000000068e+01 1.026389999999999914e+00 6.325199999999999712e+00 2.196361999999999881e+01 -2.708019999999999872e+00 4.556440000000000268e+00 2.489621999999999957e+01 5.448010000000000019e+00 1.584419999999999940e+00 2.850862000000000052e+01 -1.148600000000000065e+00 3.021669999999999856e+00 2.135142000000000095e+01 3.172499999999999876e+00 1.027020000000000044e+00 2.479332000000000136e+01 -4.995899999999999785e-01 4.551300000000000345e+00 2.828932000000000002e+01 3.229760000000000186e+00 2.705789999999999917e+00 2.182451999999999970e+01 -4.404000000000000137e-01 9.488699999999999912e-01 2.507771999999999935e+01 3.988140000000000018e+00 5.114379999999999704e+00 2.822901999999999845e+01
2.026660000000000128e+00 4.583599999999999897e-01 6.860839999999999606e+00 -1.512019999999999920e+00 4.037670000000000314e+00 3.289386999999999972e+01 6.048930000000000362e+00 2.713900000000000201e-01 8.723169999999999646e+00 4.993109999999999715e+00 -2.432600000000000040e-01 3.336187000000000324e+01 1.805200000000000138e-01 3.362719999999999931e+00 9.400470000000000326e+00 -6.485699999999999799e-01 1.191589999999999927e+00 9.137399999999999967e-01 4.050390000000000157e+00 3.205519999999999925e+00 7.153870000000000395e+00 1.932590000000000030e+00 4.191449999999999676e+00 7.585499999999999465e-01 -2.678910000000000124e+00 5.051590000000000025e+00 5.089480000000000004e+00 2.872910000000000075e+00 3.666889999999999983e+00 3.257627000000000095e+01 -2.491579999999999906e+00 4.914520000000000444e+00 1.180889999999999995e+00 1.302729999999999944e+00 1.060240000000000071e+00 9.453070000000000306e+00 4.716799999999999882e-01 1.832699999999999996e+00 3.300477000000000061e+01 3.870029999999999859e+00 1.234999999999999987e-02 1.587450000000000028e+00 4.730059999999999931e+00 7.567099999999999937e-01 6.287720000000000198e+00 4.929879999999999818e+00 2.775409999999999933e+00 9.497469999999999857e+00 9.204200000000000159e-01 2.462110000000000021e+00 2.546990000000000087e+00 1.348999999999999977e+00 3.225270000000000081e+00 6.814659999999999940e+00 9.644700000000000495e-01 5.441419999999999924e+00 1.064347000000000065e+01 3.003919999999999924e+00 1.025500000000000023e-01 3.186706999999999823e+01