-6.962265881000000434e+01
-6.601166723000000047e+01
-6.661610450000000583e+01
-6.673689862000000517e+01
-6.723105241999999748e+01
-6.614591341000000568e+01
-6.799950011999999333e+01
-6.774844387999999640e+01
-6.801855351000000383e+01
-6.791389042000000131e+01
-6.839209583000000237e+01
-6.646009093000000689e+01
-6.896473163000000284e+01
-6.588165164999999490e+01
-6.883567723000000171e+01
-6.668205883999999628e+01
-6.801453035000000114e+01
-6.804288427000000183e+01
-6.790428737999999953e+01
-6.738512031999999863e+01
-6.628556525000000477e+01
-6.584433203000000390e+01
-6.549361740999999881e+01
-6.781348932999999590e+01
-6.753654301000000260e+01
-6.869552063000000430e+01
-6.804140288000000680e+01
-6.861439373000000330e+01
-6.504245466999999792e+01
-6.715781715999999335e+01
-6.753865100000000155e+01
-6.481126080999999317e+01
-6.859923965000000123e+01
-6.611619994999999506e+01
-6.781365198999999677e+01
-6.580219642999999508e+01
-6.633481444999999610e+01
-6.883562499999999318e+01
-6.557319223999999735e+01
-6.746908901999999841e+01
-6.501839721000000338e+01
-6.629804846000000396e+01
-6.783773044000000141e+01
-6.615267699000000334e+01
-6.551721908000000383e+01
-6.581006456999999443e+01
-6.621489074999999502e+01
-6.794123903999999925e+01
-6.816839837000000557e+01
-6.667373041000000455e+01
-6.594800474999999551e+01
-6.780607881999999620e+01
-6.626924755999999661e+01
-6.508102191000000403e+01
-6.759197885000000383e+01
-6.773197672999999952e+01
-6.688161006999999358e+01
-6.549999031999999488e+01
-6.773300509999999974e+01
-6.802441969000000199e+01
-6.574481437999999400e+01
-6.865807153000000085e+01
-6.530553514999999720e+01
-6.540151790000000176e+01
-6.763452452999999309e+01
-6.763760267000000681e+01
-6.617651908000000560e+01
-6.786213478000000521e+01
-6.851900953000000527e+01
-6.819545127000000662e+01
-6.575974635000000035e+01
-6.882511986000000093e+01
-6.784263851999999417e+01
-6.509274460000000317e+01
-6.492130758000000412e+01
-6.786234944999999641e+01
-6.521072359999999435e+01
-6.614598177000000589e+01
-6.636908164999999826e+01
-6.697976742999999544e+01
-6.472739830999999811e+01
-6.798206190000000504e+01
-6.571300408000000459e+01
-6.602979111999999873e+01
-6.930466898000000242e+01
-6.962423506000000373e+01
-6.644314275000000691e+01
-6.552531874000000300e+01
-6.699098886999999536e+01
-6.811059023999999340e+01
-6.524831245999999396e+01
-6.578340319000000136e+01
-6.670935457999999585e+01
-6.798016699000000074e+01
-6.606386571000000174e+01
-6.672944540999999674e+01
-6.630603444999999851e+01
-6.519792558999999699e+01
-6.793232335999999805e+01
-6.613844815000000210e+01
-6.729153567999999552e+01
-6.776908292999999617e+01
-6.569761821000000168e+01
-6.585767688999999336e+01
-6.773393011999999658e+01
-6.778681899000000044e+01
-6.507733344999999758e+01
-6.705589093999999761e+01
-6.777578982999999369e+01
-6.557568804000000284e+01
-6.678160644000000445e+01
-6.728080031999999733e+01
-6.606482737000000327e+01
-6.527786720000000287e+01
-6.683776088000000470e+01
-6.612560179000000460e+01
-6.728601777000000084e+01
-6.872435500000000275e+01
-6.579471123999999804e+01
-6.867797647000000438e+01
-6.822452676999999710e+01
-6.594888425999999981e+01
-6.711747973999999317e+01
-6.795816191000000117e+01
-6.536830734000000120e+01
-6.581681360999999697e+01
-6.625564570999999603e+01
-6.763769333999999844e+01
-6.706584354999999675e+01
-6.830374704000000463e+01
-6.588329978999999526e+01
-6.770337410000000489e+01
-6.856990647000000649e+01
-6.754034061999999494e+01
-6.879918356000000301e+01
-6.623681526999999392e+01
-6.945761303000000453e+01
-6.736064204999999561e+01
-6.772406143999999983e+01
-6.822130124000000251e+01
-6.725085740999999473e+01
-6.483728102999999976e+01
-6.628665929000000290e+01
-6.850556799999999669e+01
-6.506502702999999599e+01
-6.498350168999999710e+01
-6.623623847999999725e+01
-6.622856092000000672e+01
-6.727537965999999869e+01
-6.451668696000000125e+01
-6.522160008999999548e+01
-6.694718362999999783e+01
-6.560442021000000068e+01
-6.862566719000000148e+01
-6.784063745000000267e+01
-6.777573474999999803e+01
-6.938880896999999948e+01
-6.737969854000000680e+01
-6.486981896999999719e+01
-6.583516319999999666e+01
-6.738530020000000320e+01
-6.878609246999999982e+01
-6.518048172999999679e+01
-6.686191191999999717e+01
-6.879656878999999492e+01
-6.740695422000000292e+01
-6.596578578999999820e+01
-6.577989327999999603e+01
-6.872035692999999412e+01
-6.870182687999999871e+01
-6.584808126000000073e+01
-6.602523508000000163e+01
-6.802866391999999962e+01
-6.810344460000000311e+01
-6.532759335999999450e+01
