8.300120909000000324e+00 0.000000000000000000e+00 0.000000000000000000e+00 2.488012265000000056e+00 6.758341835000000408e+00 0.000000000000000000e+00 0.000000000000000000e+00 0.000000000000000000e+00 2.000000000000000000e+01
8.860734851000000134e+00 0.000000000000000000e+00 0.000000000000000000e+00 -4.007219821999999709e+00 6.940708820000000223e+00 0.000000000000000000e+00 0.000000000000000000e+00 0.000000000000000000e+00 2.000000000000000000e+01
8.381261601000000283e+00 0.000000000000000000e+00 0.000000000000000000e+00 -4.172025561999999965e+00 7.226160754000000352e+00 0.000000000000000000e+00 0.000000000000000000e+00 0.000000000000000000e+00 2.000000000000000000e+01
8.404573866999999865e+00 0.000000000000000000e+00 0.000000000000000000e+00 -4.186631478999999878e+00 7.251458946999999711e+00 0.000000000000000000e+00 0.000000000000000000e+00 0.000000000000000000e+00 2.000000000000000000e+01
7.038873985000000388e+00 0.000000000000000000e+00 0.000000000000000000e+00 2.239147534999999856e+00 6.082335151999999745e+00 0.000000000000000000e+00 0.000000000000000000e+00 0.000000000000000000e+00 2.000000000000000000e+01
8.335916019000000787e+00 0.000000000000000000e+00 0.000000000000000000e+00 -4.376046696000000402e+00 7.579535748999999711e+00 0.000000000000000000e+00 0.000000000000000000e+00 0.000000000000000000e+00 2.000000000000000000e+01
8.710997258000000798e+00 0.000000000000000000e+00 0.000000000000000000e+00 -4.170140962999999701e+00 7.222896533000000119e+00 0.000000000000000000e+00 0.000000000000000000e+00 0.000000000000000000e+00 2.000000000000000000e+01
8.109870358000000223e+00 0.000000000000000000e+00 0.000000000000000000e+00 -4.438444646999999854e+00 7.687612178000000185e+00 0.000000000000000000e+00 0.000000000000000000e+00 0.000000000000000000e+00 2.000000000000000000e+01
7.822450997999999878e+00 0.000000000000000000e+00 0.000000000000000000e+00 -4.244383432000000234e+00 7.351488271000000019e+00 0.000000000000000000e+00 0.000000000000000000e+00 0.000000000000000000e+00 2.000000000000000000e+01
8.666732150999999718e+00 0.000000000000000000e+00 0.000000000000000000e+00 -4.235680544000000047e+00 7.336414425000000072e+00 0.000000000000000000e+00 0.000000000000000000e+00 0.000000000000000000e+00 2.000000000000000000e+01
8.874881181999999313e+00 0.000000000000000000e+00 0.000000000000000000e+00 -3.929427140000000040e+00 6.805967932999999803e+00 0.000000000000000000e+00 0.000000000000000000e+00 0.000000000000000000e+00 2.000000000000000000e+01
8.447479749999999399e+00 0.000000000000000000e+00 0.000000000000000000e+00 -4.254740319999999798e+00 7.369426929000000293e+00 0.000000000000000000e+00 0.000000000000000000e+00 0.000000000000000000e+00 2.000000000000000000e+01
8.494151562000000766e+00 0.000000000000000000e+00 0.000000000000000000e+00 -4.183813458000000374e+00 7.246577991999999746e+00 0.000000000000000000e+00 0.000000000000000000e+00 0.000000000000000000e+00 2.000000000000000000e+01
9.056359323000000572e+00 0.000000000000000000e+00 0.000000000000000000e+00 -4.286679527999999628e+00 7.424747263000000430e+00 0.000000000000000000e+00 0.000000000000000000e+00 0.000000000000000000e+00 2.000000000000000000e+01
8.325831711999999385e+00 0.000000000000000000e+00 0.000000000000000000e+00 2.817135122999999908e+00 7.652358641000000183e+00 0.000000000000000000e+00 0.000000000000000000e+00 0.000000000000000000e+00 2.000000000000000000e+01
8.502512072000000032e+00 0.000000000000000000e+00 0.000000000000000000e+00 -4.232424165000000293e+00 7.330774211999999679e+00 0.000000000000000000e+00 0.000000000000000000e+00 0.000000000000000000e+00 2.000000000000000000e+01
8.126874324999999288e+00 0.000000000000000000e+00 0.000000000000000000e+00 -4.144051550000000361e+00 7.177708341999999853e+00 0.000000000000000000e+00 0.000000000000000000e+00 0.000000000000000000e+00 2.000000000000000000e+01
9.175365484000000293e+00 0.000000000000000000e+00 0.000000000000000000e+00 -4.416833111999999950e+00 7.650179900000000366e+00 0.000000000000000000e+00 0.000000000000000000e+00 0.000000000000000000e+00 2.000000000000000000e+01
8.264154109999999775e+00 0.000000000000000000e+00 0.000000000000000000e+00 -4.175051080000000248e+00 7.231401106999999939e+00 0.000000000000000000e+00 0.000000000000000000e+00 0.000000000000000000e+00 2.000000000000000000e+01
8.519565726999999811e+00 0.000000000000000000e+00 0.000000000000000000e+00 -4.296004769999999695e+00 7.440899057000000205e+00 0.000000000000000000e+00 0.000000000000000000e+00 0.000000000000000000e+00 2.000000000000000000e+01
7.967495825000000309e+00 0.000000000000000000e+00 0.000000000000000000e+00 -4.068147871999999943e+00 7.046239305000000286e+00 0.000000000000000000e+00 0.000000000000000000e+00 0.000000000000000000e+00 2.000000000000000000e+01
8.394878198000000680e+00 0.000000000000000000e+00 0.000000000000000000e+00 -4.389133992999999734e+00 7.602203614000000442e+00 0.000000000000000000e+00 0.000000000000000000e+00 0.000000000000000000e+00 2.000000000000000000e+01
8.757652846999999241e+00 0.000000000000000000e+00 0.000000000000000000e+00 -3.949937933000000179e+00 6.841493671000000276e+00 0.000000000000000000e+00 0.000000000000000000e+00 0.000000000000000000e+00 2.000000000000000000e+01
8.451418758000000864e+00 0.000000000000000000e+00 0.000000000000000000e+00 -4.207233315999999945e+00 7.287142378000000420e+00 0.000000000000000000e+00 0.000000000000000000e+00 0.000000000000000000e+00 2.000000000000000000e+01
8.551287660999999929e+00 0.000000000000000000e+00 0.000000000000000000e+00 -4.127719265999999720e+00 7.149419993999999612e+00 0.000000000000000000e+00 0.000000000000000000e+00 0.000000000000000000e+00 2.000000000000000000e+01
8.220220688999999581e+00 0.000000000000000000e+00 0.000000000000000000e+00 -4.303389014999999596e+00 7.453688944999999677e+00 0.000000000000000000e+00 0.000000000000000000e+00 0.000000000000000000e+00 2.000000000000000000e+01
7.973990533000000269e+00 0.000000000000000000e+00 0.000000000000000000e+00 -4.358225829000000218e+00 7.548669099999999688e+00 0.000000000000000000e+00 0.000000000000000000e+00 0.000000000000000000e+00 2.000000000000000000e+01
6.855770452999999875e+00 0.000000000000000000e+00 0.000000000000000000e+00 2.516820410999999869e+00 6.836595187000000351e+00 0.000000000000000000e+00 0.000000000000000000e+00 0.000000000000000000e+00 2.000000000000000000e+01
8.738263211999999669e+00 0.000000000000000000e+00 0.000000000000000000e+00 -4.384516542000000072e+00 7.594205954000000425e+00 0.000000000000000000e+00 0.000000000000000000e+00 0.000000000000000000e+00 2.000000000000000000e+01
8.623521779000000720e+00 0.000000000000000000e+00 0.000000000000000000e+00 -4.238313035000000006e+00 7.340974034000000259e+00 0.000000000000000000e+00 0.000000000000000000e+00 0.000000000000000000e+00 2.000000000000000000e+01
8.569025061999999693e+00 0.000000000000000000e+00 0.000000000000000000e+00 -4.204093199999999975e+00 7.281703538000000364e+00 0.000000000000000000e+00 0.000000000000000000e+00 0.000000000000000000e+00 2.000000000000000000e+01
8.340577246000000500e+00 0.000000000000000000e+00 0.000000000000000000e+00 -4.245781302000000146e+00 7.353909452999999985e+00 0.000000000000000000e+00 0.000000000000000000e+00 0.000000000000000000e+00 2.000000000000000000e+01
7.868093370000000419e+00 0.000000000000000000e+00 0.000000000000000000e+00 -4.222624513000000412e+00 7.313800715000000174e+00 0.000000000000000000e+00 0.000000000000000000e+00 0.000000000000000000e+00 2.000000000000000000e+01
8.853810948999999653e+00 0.000000000000000000e+00 0.000000000000000000e+00 -4.568649243000000304e+00 7.913133171000000132e+00 0.000000000000000000e+00 0.000000000000000000e+00 0.000000000000000000e+00 2.000000000000000000e+01
8.310746204000000859e+00 0.000000000000000000e+00 0.000000000000000000e+00 -4.230430926000000369e+00 7.327321819999999875e+00 0.000000000000000000e+00 0.000000000000000000e+00 0.000000000000000000e+00 2.000000000000000000e+01
8.568985967999999787e+00 0.000000000000000000e+00 0.000000000000000000e+00 -3.964514961999999976e+00 6.866741827000000242e+00 0.000000000000000000e+00 0.000000000000000000e+00 0.000000000000000000e+00 2.000000000000000000e+01
8.516970286999999473e+00 0.000000000000000000e+00 0.000000000000000000e+00 -4.594743610000000089e+00 7.958329942999999851e+00 0.000000000000000000e+00 0.000000000000000000e+00 0.000000000000000000e+00 2.000000000000000000e+01
8.804481369999999529e+00 0.000000000000000000e+00 0.000000000000000000e+00 -4.303421362999999999e+00 7.453744975000000217e+00 0.000000000000000000e+00 0.000000000000000000e+00 0.000000000000000000e+00 2.000000000000000000e+01
7.727307266000000396e+00 0.000000000000000000e+00 0.000000000000000000e+00 2.549339806999999958e+00 6.924929635999999888e+00 0.000000000000000000e+00 0.000000000000000000e+00 0.000000000000000000e+00 2.000000000000000000e+01
8.251143071999999634e+00 0.000000000000000000e+00 0.000000000000000000e+00 2.700887691000000146e+00 7.336588541000000241e+00 0.000000000000000000e+00 0.000000000000000000e+00 0.000000000000000000e+00 2.000000000000000000e+01
8.290115663999999995e+00 0.000000000000000000e+00 0.000000000000000000e+00 -4.330503576999999993e+00 7.500652748000000258e+00 0.000000000000000000e+00 0.000000000000000000e+00 0.000000000000000000e+00 2.000000000000000000e+01
8.617260380999999470e+00 0.000000000000000000e+00 0.000000000000000000e+00 -4.217429109000000231e+00 7.304802010999999595e+00 0.000000000000000000e+00 0.000000000000000000e+00 0.000000000000000000e+00 2.000000000000000000e+01
7.351772558999999596e+00 0.000000000000000000e+00 0.000000000000000000e+00 -3.806007770999999984e+00 6.592199298999999790e+00 0.000000000000000000e+00 0.000000000000000000e+00 0.000000000000000000e+00 2.000000000000000000e+01
8.401980331000000746e+00 0.000000000000000000e+00 0.000000000000000000e+00 -4.324773676000000400e+00 7.490728266999999718e+00 0.000000000000000000e+00 0.000000000000000000e+00 0.000000000000000000e+00 2.000000000000000000e+01
8.380649018999999811e+00 0.000000000000000000e+00 0.000000000000000000e+00 -4.155450871000000213e+00 7.197452546000000062e+00 0.000000000000000000e+00 0.000000000000000000e+00 0.000000000000000000e+00 2.000000000000000000e+01
8.192920381000000418e+00 0.000000000000000000e+00 0.000000000000000000e+00 -3.828104960000000112e+00 6.630472755000000440e+00 0.000000000000000000e+00 0.000000000000000000e+00 0.000000000000000000e+00 2.000000000000000000e+01
8.571288144000000386e+00 0.000000000000000000e+00 0.000000000000000000e+00 -4.013068554000000177e+00 6.950839120999999565e+00 0.000000000000000000e+00 0.000000000000000000e+00 0.000000000000000000e+00 2.000000000000000000e+01
8.539684646999999629e+00 0.000000000000000000e+00 0.000000000000000000e+00 -4.176764292999999739e+00 7.234368478999999574e+00 0.000000000000000000e+00 0.000000000000000000e+00 0.000000000000000000e+00 2.000000000000000000e+01
8.695556422999999313e+00 0.000000000000000000e+00 0.000000000000000000e+00 -4.392040305000000089e+00 7.607237493999999600e+00 0.000000000000000000e+00 0.000000000000000000e+00 0.000000000000000000e+00 2.000000000000000000e+01
9.229612960000000754e+00 0.000000000000000000e+00 0.000000000000000000e+00 -4.441143515000000264e+00 7.692286755999999670e+00 0.000000000000000000e+00 0.000000000000000000e+00 0.000000000000000000e+00 2.000000000000000000e+01
8.237417098999999965e+00 0.000000000000000000e+00 0.000000000000000000e+00 -4.096668206000000367e+00 7.095637975999999902e+00 0.000000000000000000e+00 0.000000000000000000e+00 0.000000000000000000e+00 2.000000000000000000e+01
8.245659393000000392e+00 0.000000000000000000e+00 0.000000000000000000e+00 -4.123754578999999865e+00 7.142552954000000121e+00 0.000000000000000000e+00 0.000000000000000000e+00 0.000000000000000000e+00 2.000000000000000000e+01
8.453699557000000198e+00 0.000000000000000000e+00 0.000000000000000000e+00 -4.220147953999999757e+00 7.309511188000000104e+00 0.000000000000000000e+00 0.000000000000000000e+00 0.000000000000000000e+00 2.000000000000000000e+01
8.726032831999999573e+00 0.000000000000000000e+00 0.000000000000000000e+00 -4.318068696000000095e+00 7.479114900999999982e+00 0.000000000000000000e+00 0.000000000000000000e+00 0.000000000000000000e+00 2.000000000000000000e+01
8.028700203999999729e+00 0.000000000000000000e+00 0.000000000000000000e+00 -4.312596982999999717e+00 7.469637613999999814e+00 0.000000000000000000e+00 0.000000000000000000e+00 0.000000000000000000e+00 2.000000000000000000e+01
8.446219103000000672e+00 0.000000000000000000e+00 0.000000000000000000e+00 -4.257512295999999807e+00 7.374228130999999742e+00 0.000000000000000000e+00 0.000000000000000000e+00 0.000000000000000000e+00 2.000000000000000000e+01
9.022089504000000204e+00 0.000000000000000000e+00 0.000000000000000000e+00 -4.291591963000000121e+00 7.433255851000000192e+00 0.000000000000000000e+00 0.000000000000000000e+00 0.000000000000000000e+00 2.000000000000000000e+01
8.201008955000000711e+00 0.000000000000000000e+00 0.000000000000000000e+00 -4.127643420000000063e+00 7.149288624000000425e+00 0.000000000000000000e+00 0.000000000000000000e+00 0.000000000000000000e+00 2.000000000000000000e+01
8.621920855000000827e+00 0.000000000000000000e+00 0.000000000000000000e+00 -4.394896268000000106e+00 7.612184167999999751e+00 0.000000000000000000e+00 0.000000000000000000e+00 0.000000000000000000e+00 2.000000000000000000e+01
8.788151281999999398e+00 0.000000000000000000e+00 0.000000000000000000e+00 -4.286585084000000379e+00 7.424583680999999658e+00 0.000000000000000000e+00 0.000000000000000000e+00 0.000000000000000000e+00 2.000000000000000000e+01
8.487814110000000412e+00 0.000000000000000000e+00 0.000000000000000000e+00 -4.137435493999999991e+00 7.166248996000000204e+00 0.000000000000000000e+00 0.000000000000000000e+00 0.000000000000000000e+00 2.000000000000000000e+01
8.465845902999999950e+00 0.000000000000000000e+00 0.000000000000000000e+00 -4.488688616000000131e+00 7.774637291000000339e+00 0.000000000000000000e+00 0.000000000000000000e+00 0.000000000000000000e+00 2.000000000000000000e+01
8.582129560000000268e+00 0.000000000000000000e+00 0.000000000000000000e+00 -4.380375014000000178e+00 7.587032617000000201e+00 0.000000000000000000e+00 0.000000000000000000e+00 0.000000000000000000e+00 2.000000000000000000e+01
8.150393027999999873e+00 0.000000000000000000e+00 0.000000000000000000e+00 -4.373021636999999906e+00 7.574296192000000261e+00 0.000000000000000000e+00 0.000000000000000000e+00 0.000000000000000000e+00 2.000000000000000000e+01
8.328378971999999436e+00 0.000000000000000000e+00 0.000000000000000000e+00 -4.418023852000000140e+00 7.652242322000000208e+00 0.000000000000000000e+00 0.000000000000000000e+00 0.000000000000000000e+00 2.000000000000000000e+01
8.639897059999999129e+00 0.000000000000000000e+00 0.000000000000000000e+00 -4.003023474999999998e+00 6.933440532999999739e+00 0.000000000000000000e+00 0.000000000000000000e+00 0.000000000000000000e+00 2.000000000000000000e+01
7.937778767000000180e+00 0.000000000000000000e+00 0.000000000000000000e+00 -4.368946356999999558e+00 7.567237601000000424e+00 0.000000000000000000e+00 0.000000000000000000e+00 0.000000000000000000e+00 2.000000000000000000e+01
8.283366172999999222e+00 0.000000000000000000e+00 0.000000000000000000e+00 -4.335972689000000102e+00 7.510125528999999744e+00 0.000000000000000000e+00 0.000000000000000000e+00 0.000000000000000000e+00 2.000000000000000000e+01
8.755411651999999378e+00 0.000000000000000000e+00 0.000000000000000000e+00 -4.168994987999999680e+00 7.220911645000000156e+00 0.000000000000000000e+00 0.000000000000000000e+00 0.000000000000000000e+00 2.000000000000000000e+01
8.332627117999999555e+00 0.000000000000000000e+00 0.000000000000000000e+00 -4.418505233000000310e+00 7.653076097999999661e+00 0.000000000000000000e+00 0.000000000000000000e+00 0.000000000000000000e+00 2.000000000000000000e+01
8.319207115999999402e+00 0.000000000000000000e+00 0.000000000000000000e+00 -4.111631026000000411e+00 7.121554342999999676e+00 0.000000000000000000e+00 0.000000000000000000e+00 0.000000000000000000e+00 2.000000000000000000e+01
8.590023172000000429e+00 0.000000000000000000e+00 0.000000000000000000e+00 -4.230785256999999966e+00 7.327935539000000276e+00 0.000000000000000000e+00 0.000000000000000000e+00 0.000000000000000000e+00 2.000000000000000000e+01
8.615810244000000395e+00 0.000000000000000000e+00 0.000000000000000000e+00 -4.341272934000000028e+00 7.519305822999999833e+00 0.000000000000000000e+00 0.000000000000000000e+00 0.000000000000000000e+00 2.000000000000000000e+01
8.296973252000000798e+00 0.000000000000000000e+00 0.000000000000000000e+00 -4.163071173999999708e+00 7.210651298000000153e+00 0.000000000000000000e+00 0.000000000000000000e+00 0.000000000000000000e+00 2.000000000000000000e+01
8.339609653000000122e+00 0.000000000000000000e+00 0.000000000000000000e+00 -4.412577698999999853e+00 7.642809308000000357e+00 0.000000000000000000e+00 0.000000000000000000e+00 0.000000000000000000e+00 2.000000000000000000e+01
8.064706348999999719e+00 0.000000000000000000e+00 0.000000000000000000e+00 2.645280147999999887e+00 7.185538326999999725e+00 0.000000000000000000e+00 0.000000000000000000e+00 0.000000000000000000e+00 2.000000000000000000e+01
8.544780916000000559e+00 0.000000000000000000e+00 0.000000000000000000e+00 -4.201991556000000294e+00 7.278063382000000026e+00 0.000000000000000000e+00 0.000000000000000000e+00 0.000000000000000000e+00 2.000000000000000000e+01
8.555659166999999954e+00 0.000000000000000000e+00 0.000000000000000000e+00 -4.166137599999999885e+00 7.215962504000000166e+00 0.000000000000000000e+00 0.000000000000000000e+00 0.000000000000000000e+00 2.000000000000000000e+01
8.734542904999999635e+00 0.000000000000000000e+00 0.000000000000000000e+00 -4.280606663000000367e+00 7.414228750999999562e+00 0.000000000000000000e+00 0.000000000000000000e+00 0.000000000000000000e+00 2.000000000000000000e+01
8.668520371999999696e+00 0.000000000000000000e+00 0.000000000000000000e+00 -4.272992603999999695e+00 7.401040813999999912e+00 0.000000000000000000e+00 0.000000000000000000e+00 0.000000000000000000e+00 2.000000000000000000e+01
8.555344157000000394e+00 0.000000000000000000e+00 0.000000000000000000e+00 -4.162519871999999843e+00 7.209696414999999803e+00 0.000000000000000000e+00 0.000000000000000000e+00 0.000000000000000000e+00 2.000000000000000000e+01
8.224459938000000747e+00 0.000000000000000000e+00 0.000000000000000000e+00 -4.465219181000000148e+00 7.733987036000000259e+00 0.000000000000000000e+00 0.000000000000000000e+00 0.000000000000000000e+00 2.000000000000000000e+01
8.773634622999999522e+00 0.000000000000000000e+00 0.000000000000000000e+00 -4.081024102999999847e+00 7.068541592999999956e+00 0.000000000000000000e+00 0.000000000000000000e+00 0.000000000000000000e+00 2.000000000000000000e+01
8.330073733000000757e+00 0.000000000000000000e+00 0.000000000000000000e+00 -4.169382335999999967e+00 7.221582552000000099e+00 0.000000000000000000e+00 0.000000000000000000e+00 0.000000000000000000e+00 2.000000000000000000e+01
8.305592599000000575e+00 0.000000000000000000e+00 0.000000000000000000e+00 -4.230745398999999907e+00 7.327866503000000087e+00 0.000000000000000000e+00 0.000000000000000000e+00 0.000000000000000000e+00 2.000000000000000000e+01
7.119728525000000197e+00 0.000000000000000000e+00 0.000000000000000000e+00 2.437594540000000087e+00 6.621389044999999918e+00 0.000000000000000000e+00 0.000000000000000000e+00 0.000000000000000000e+00 2.000000000000000000e+01
8.249194392999999792e+00 0.000000000000000000e+00 0.000000000000000000e+00 -4.314974696000000165e+00 7.473755934999999795e+00 0.000000000000000000e+00 0.000000000000000000e+00 0.000000000000000000e+00 2.000000000000000000e+01
7.938651528000000290e+00 0.000000000000000000e+00 0.000000000000000000e+00 2.571009029999999917e+00 6.983791089000000341e+00 0.000000000000000000e+00 0.000000000000000000e+00 0.000000000000000000e+00 2.000000000000000000e+01
8.173071818000000377e+00 0.000000000000000000e+00 0.000000000000000000e+00 -4.544773700000000360e+00 7.871779512999999895e+00 0.000000000000000000e+00 0.000000000000000000e+00 0.000000000000000000e+00 2.000000000000000000e+01
8.337401356999999180e+00 0.000000000000000000e+00 0.000000000000000000e+00 -4.390966194999999850e+00 7.605377081000000317e+00 0.000000000000000000e+00 0.000000000000000000e+00 0.000000000000000000e+00 2.000000000000000000e+01
8.181564819000000099e+00 0.000000000000000000e+00 0.000000000000000000e+00 -4.159311209000000176e+00 7.204138848000000372e+00 0.000000000000000000e+00 0.000000000000000000e+00 0.000000000000000000e+00 2.000000000000000000e+01
8.159313850000000201e+00 0.000000000000000000e+00 0.000000000000000000e+00 -3.874536215000000006e+00 6.710894053999999720e+00 0.000000000000000000e+00 0.000000000000000000e+00 0.000000000000000000e+00 2.000000000000000000e+01
8.382995774999999483e+00 0.000000000000000000e+00 0.000000000000000000e+00 -4.022780026000000397e+00 6.967659884999999775e+00 0.000000000000000000e+00 0.000000000000000000e+00 0.000000000000000000e+00 2.000000000000000000e+01
8.036037636999999734e+00 0.000000000000000000e+00 0.000000000000000000e+00 -4.670397297000000059e+00 8.089365981000000261e+00 0.000000000000000000e+00 0.000000000000000000e+00 0.000000000000000000e+00 2.000000000000000000e+01
8.752780591000000499e+00 0.000000000000000000e+00 0.000000000000000000e+00 -4.134089991999999825e+00 7.160454415000000239e+00 0.000000000000000000e+00 0.000000000000000000e+00 0.000000000000000000e+00 2.000000000000000000e+01
8.310526986999999366e+00 0.000000000000000000e+00 0.000000000000000000e+00 -4.043541569000000280e+00 7.003619934999999685e+00 0.000000000000000000e+00 0.000000000000000000e+00 0.000000000000000000e+00 2.000000000000000000e+01
8.607490073999999325e+00 0.000000000000000000e+00 0.000000000000000000e+00 -4.217657252000000412e+00 7.305197166000000131e+00 0.000000000000000000e+00 0.000000000000000000e+00 0.000000000000000000e+00 2.000000000000000000e+01
8.187450120999999470e+00 0.000000000000000000e+00 0.000000000000000000e+00 -4.330652159999999640e+00 7.500910099999999581e+00 0.000000000000000000e+00 0.000000000000000000e+00 0.000000000000000000e+00 2.000000000000000000e+01
8.445772689000000000e+00 0.000000000000000000e+00 0.000000000000000000e+00 -4.152064133999999740e+00 7.191586543999999748e+00 0.000000000000000000e+00 0.000000000000000000e+00 0.000000000000000000e+00 2.000000000000000000e+01
8.064356318999999829e+00 0.000000000000000000e+00 0.000000000000000000e+00 -4.185155559000000025e+00 7.248902578000000041e+00 0.000000000000000000e+00 0.000000000000000000e+00 0.000000000000000000e+00 2.000000000000000000e+01
