7.771989999999999732e-01 -5.922910000000000119e-01 4.852339999999999987e-01 -1.069457000000000102e+00 -5.217490000000000183e-01 5.807350000000000012e-01 -7.920900000000000163e-02 1.800173000000000023e+00 1.071682000000000023e+00 6.929720000000000324e-01 3.389600000000000252e-02 -9.580089999999999995e-01 4.745400000000000312e-02 -4.880050000000000221e-01 -1.076651999999999942e+00 -1.044094000000000078e+00 -1.069819999999999938e-01 2.086330000000000129e-01 -9.819740000000000135e-01 -1.092300999999999966e+00 7.647429999999999506e-01 5.939599999999999741e-02 -2.452409999999999868e-01 -8.285800000000000110e-02 2.147699999999999956e-02 8.420779999999999932e-01 -2.350970000000000004e-01 5.183200000000000307e-02 -6.936000000000000498e-02 1.425599999999999958e-02 -1.537159999999999915e-01 -8.861999999999999877e-01 -5.183000000000000107e-02 4.672290000000000054e-01 -6.660800000000000054e-01 2.286360000000000059e-01 8.143270000000000231e-01 6.015169999999999684e-01 -6.116989999999999927e-01 8.619400000000000672e-02 5.782880000000000242e-01 -1.982491000000000003e+00 -8.010129999999999750e-01 5.859860000000000069e-01 -4.742830000000000101e-01 1.014980000000000049e-01 -2.220109999999999861e-01 -8.688700000000000589e-02 1.732599999999999973e-01 -4.692330000000000112e-01 4.991030000000000189e-01 3.361600000000000005e-02 -4.667799999999999727e-02 2.005639999999999923e-01 -3.204980000000000051e-01 5.904979999999999674e-01 7.996699999999999642e-02 1.123507000000000033e+00 3.736959999999999726e-01 1.426252999999999993e+00
5.753999999999999566e-03 -1.602225999999999928e+00 -4.628410000000000024e-01 4.307219999999999938e-01 -1.289700000000000048e-02 -2.453107000000000149e+00 1.167167999999999983e+00 -8.573779999999999735e-01 1.041697000000000095e+00 5.944589999999999597e-01 -3.247450000000000059e-01 -2.346759999999999957e-01 1.862799999999999873e-02 1.099847999999999937e+00 8.074139999999999651e-01 -5.253550000000000164e-01 3.389159999999999950e-01 -1.379200000000000044e-02 -1.890954000000000024e+00 9.924399999999999888e-01 -3.219199999999999839e-02 -1.001298000000000021e+00 2.142350000000000088e-01 1.540596999999999994e+00 -4.231489999999999974e-01 1.374980000000000091e-01 8.015619999999999967e-01 3.120689999999999853e-01 1.685378999999999960e+00 4.021469999999999767e-01 -1.521873000000000031e+00 -1.067156999999999911e+00 2.998069999999999902e-01 -6.134460000000000468e-01 1.670215999999999923e+00 -5.456060000000000354e-01 -3.722599999999999798e-01 -5.301829999999999599e-01 7.101169999999999982e-01 -2.859860000000000180e-01 2.281199999999999894e-02 8.448250000000000481e-01 7.902639999999999665e-01 -3.575619999999999910e-01 1.241469999999999935e-01 8.474120000000000541e-01 -7.159600000000000686e-02 -9.639159999999999950e-01 6.968280000000000030e-01 -6.345000000000000639e-02 -9.356360000000000232e-01 -2.107799999999999951e-01 -3.414840000000000098e-01 -5.715500000000000025e-01 1.318940999999999919e+00 -1.789570000000000050e-01 3.162150000000000238e-01 6.628560000000000008e-01 -7.537089999999999623e-01 -6.752139999999999809e-01
-5.938459999999999850e-01 -6.797579999999999734e-01 -1.689829999999999943e-01 -1.455460000000000087e-01 -1.876600000000000143e-02 1.051118999999999915e+00 -2.327680000000000027e-01 1.734860000000000013e-01 8.016750000000000265e-01 6.561399999999999455e-01 7.167179999999999662e-01 -1.282359000000000027e+00 6.290000000000000018e-04 1.749840000000000007e-01 -4.757379999999999942e-01 -1.439362999999999948e+00 1.501099999999999934e-01 5.411010000000000542e-01 2.686839999999999784e-01 3.082949999999999857e-01 -1.814600000000000102e-01 -1.119419999999999998e-01 -2.101270000000000082e-01 -2.865039999999999809e-01 1.195057000000000036e+00 -7.436420000000000252e-01 -5.520089999999999719e-01 -3.604220000000000201e-01 -3.822200000000000042e-01 -2.368250000000000077e-01 -4.616100000000000064e-02 7.293570000000000331e-01 -1.003700000000000078e-02 -1.944599999999999940e-01 5.236100000000000199e-01 -8.345879999999999965e-01 7.075090000000000545e-01 -9.954300000000000648e-02 4.432760000000000034e-01 9.362080000000000402e-01 -7.127850000000000019e-01 -5.224459999999999660e-01 -8.559919999999999751e-01 -7.370300000000000462e-02 -3.152280000000000082e-01 -1.553099999999999967e-02 -7.566399999999999515e-02 1.709046999999999983e+00 4.014389999999999903e-01 1.423550000000000093e-01 5.823509999999999520e-01 -2.306469999999999909e-01 1.768700000000000133e-02 1.729739999999999889e-01 -5.891099999999999809e-02 -1.572510000000000019e-01 8.513300000000000034e-02 1.199240000000000028e-01 2.168559999999999932e-01 -5.204999999999999627e-01
-3.511880000000000002e-01 -7.155780000000000474e-01 -3.381000000000000116e-01 -1.354420000000000068e-01 -9.690870000000000317e-01 -1.209630000000000011e-01 6.715550000000000130e-01 1.172129999999999977e-01 -8.361250000000000071e-01 2.598599999999999868e-02 -3.176800000000000179e-01 1.690998000000000001e+00 1.023249000000000075e+00 -1.190600000000000103e+00 -1.952240000000000086e-01 -4.202640000000000264e-01 2.235229999999999995e-01 -4.245990000000000042e-01 9.434470000000000356e-01 7.686760000000000259e-01 1.472898999999999958e+00 -2.281797000000000075e+00 -2.998620000000000174e-01 1.135979999999999990e+00 2.660449999999999759e-01 1.522140999999999966e+00 6.647000000000000131e-03 4.921130000000000226e-01 1.748599999999999877e-01 1.947270000000000112e-01 -1.229330000000000006e-01 8.569109999999999783e-01 6.080940000000000234e-01 -1.108975000000000044e+00 -4.289799999999999724e-01 -9.448499999999999954e-02 -1.098333999999999921e+00 4.687080000000000135e-01 -7.503309999999999702e-01 -2.648650000000000171e-01 -1.270016999999999951e+00 1.271380000000000010e-01 -1.294378999999999946e+00 8.406789999999999541e-01 -1.485660000000000036e-01 8.356639999999999624e-01 3.486620000000000275e-01 -9.647860000000000325e-01 8.984200000000000519e-02 1.110313000000000105e+00 6.334969999999999768e-01 2.320299999999999863e-01 -1.021935999999999956e+00 -8.962280000000000246e-01 2.456192000000000153e+00 1.448570000000000135e-01 -4.929890000000000105e-01 4.205300000000000010e-02 -3.628029999999999866e-01 -6.075829999999999842e-01
-1.040449999999999986e-01 2.805880000000000041e-01 -4.514250000000000207e-01 -8.807519999999999794e-01 1.366292000000000062e+00 -6.036780000000000479e-01 -2.037619999999999987e-01 2.877499999999999850e-02 8.742520000000000291e-01 3.168650000000000078e-01 7.131459999999999466e-01 4.657189999999999941e-01 -2.456900000000000056e-02 -5.436400000000000121e-01 2.645359999999999934e-01 1.217219999999999969e-01 -3.407890000000000086e-01 -7.291530000000000511e-01 -3.914059999999999762e-01 1.969269999999999909e-01 -1.983459999999999945e-01 -2.422209999999999919e-01 4.889910000000000090e-01 2.429000000000000169e-03 6.555739999999999901e-01 -8.000089999999999701e-01 -6.355619999999999603e-01 2.311060000000000059e-01 -1.278451000000000004e+00 4.629300000000000082e-02 -1.305920000000000136e-01 -3.290120000000000267e-01 -8.425900000000000056e-02 -1.044999999999999922e-03 1.517310000000000048e-01 9.742499999999999771e-02 1.196646000000000098e+00 1.381669000000000036e+00 4.613309999999999911e-01 -1.046440000000000009e-01 -6.736320000000000086e-01 5.781939999999999857e-01 6.125190000000000357e-01 -1.587989999999999957e-01 6.258730000000000127e-01 -6.333029999999999493e-01 -1.685319999999999874e-01 -1.614359999999999962e-01 3.076400000000000245e-01 -4.778680000000000150e-01 1.268599999999999936e-02 -4.800300000000000122e-01 1.170029999999999959e-01 -2.339279999999999970e-01 5.942900000000000266e-02 4.972499999999999837e-02 -4.465509999999999757e-01 -3.051340000000000163e-01 -4.114999999999999734e-03 1.155989999999999934e-01
2.255100000000000160e-02 -3.999309999999999810e-01 3.895489999999999786e-01 -5.960000000000000020e-02 -4.595879999999999965e-01 2.103790000000000104e-01 -3.063699999999999757e-01 -7.799899999999999889e-02 -6.161200000000000010e-02 1.821629999999999916e-01 -6.073979999999999935e-01 7.762799999999999701e-01 6.852650000000000130e-01 -5.631850000000000467e-01 -5.680260000000000309e-01 -1.179780999999999969e+00 7.837600000000000122e-01 -1.320553000000000088e+00 -4.318710000000000049e-01 -7.885599999999999554e-02 -2.977839999999999931e-01 4.524340000000000028e-01 8.659999999999999643e-02 -8.016299999999999815e-02 2.859579999999999900e-01 3.277229999999999865e-01 1.537830000000000030e-01 9.221699999999999342e-02 7.366350000000000398e-01 2.565160000000000218e-01 5.041799999999999754e-02 7.619599999999999984e-02 4.099200000000000066e-02 -3.936749999999999972e-01 4.139459999999999806e-01 4.995000000000000134e-02 1.847930000000000128e-01 4.387300000000000227e-02 -2.825599999999999778e-01 4.784769999999999857e-01 -6.780190000000000383e-01 -4.616100000000000064e-02 -7.341250000000000275e-01 2.796649999999999969e-01 9.215410000000000545e-01 1.165999999999999953e-01 8.592999999999999944e-03 -7.147689999999999877e-01 9.070089999999999542e-01 8.650320000000000231e-01 6.627340000000000453e-01 2.342509999999999870e-01 -7.559699999999999753e-02 4.465480000000000005e-01 2.110609999999999986e-01 -3.016300000000000092e-01 -2.017120000000000024e-01 -7.977750000000000119e-01 -3.798210000000000197e-01 -3.349329999999999807e-01
-2.678749999999999742e-01 -4.080429999999999890e-01 8.750700000000000145e-02 6.576269999999999616e-01 6.952709999999999724e-01 -1.178800999999999988e+00 3.647779999999999911e-01 -4.644820000000000060e-01 -4.517240000000000144e-01 -3.822980000000000267e-01 3.579660000000000064e-01 -9.646289999999999587e-01 2.779079999999999884e-01 1.548990000000000089e-01 4.193020000000000080e-01 -1.052410000000000012e-01 7.690400000000000014e-02 8.508999999999999203e-03 -1.993279999999999941e+00 3.104210000000000025e-01 1.646641999999999939e+00 -1.108973999999999904e+00 -7.523199999999999887e-01 1.092335000000000056e+00 3.784859999999999891e-01 -4.121560000000000223e-01 7.962280000000000468e-01 -6.951850000000000529e-01 3.164819999999999856e-01 -8.665799999999999892e-02 -3.976779999999999760e-01 -7.049549999999999983e-01 1.725150000000000017e-01 1.242390000000000022e-01 3.581079999999999819e-01 7.615210000000000035e-01 1.681080000000000074e-01 7.188890000000000002e-01 -9.914650000000000407e-01 3.055329999999999990e-01 -1.979259000000000102e+00 -3.040399999999999769e-01 2.095467000000000191e+00 9.305250000000000465e-01 -8.675749999999999851e-01 3.630610000000000226e-01 3.562429999999999763e-01 -4.617799999999999683e-02 6.701129999999999587e-01 -9.608489999999999531e-01 3.820500000000000007e-01 3.912499999999999867e-01 7.373300000000000409e-01 -5.495630000000000237e-01 -5.472110000000000030e-01 -2.703010000000000135e-01 -8.370000000000000703e-03 -2.988290000000000113e-01 9.393259999999999943e-01 8.239299999999999402e-02
-3.788369999999999793e-01 1.041711999999999971e+00 7.172840000000000327e-01 -2.306149999999999867e-01 -1.300348000000000059e+00 4.842960000000000043e-01 -2.294750000000000123e-01 3.979519999999999724e-01 -2.362529999999999908e-01 -3.777750000000000274e-01 -5.915449999999999875e-01 -1.016194999999999959e+00 7.691850000000000076e-01 -4.538899999999999879e-02 8.362799999999999401e-02 9.268769999999999509e-01 -2.532570000000000099e-01 -1.987460000000000060e-01 1.925099999999999867e-01 -4.882399999999999934e-02 2.629909999999999748e-01 1.802829999999999988e-01 -1.747350000000000014e-01 3.831669999999999798e-01 1.702249999999999874e-01 -5.570180000000000131e-01 1.033225000000000060e+00 -3.320629999999999971e-01 1.519639999999999880e-01 1.080767999999999951e+00 1.089859999999999995e-01 1.334071000000000007e+00 -4.708249999999999935e-01 1.084684999999999899e+00 -2.914519999999999889e-01 -5.653359999999999497e-01 -6.361949999999999550e-01 -1.052524999999999933e+00 -1.123205999999999927e+00 -1.320785000000000098e+00 4.475770000000000026e-01 3.568799999999999750e-02 -5.816569999999999796e-01 5.967200000000000282e-02 -1.205324000000000062e+00 3.461420000000000052e-01 4.493190000000000239e-01 1.156484999999999985e+00 1.424665999999999988e+00 -8.693650000000000544e-01 -1.821506000000000070e+00 2.414330000000000087e-01 2.959100000000000064e-01 1.384779999999999900e-01 2.046999999999999931e-01 8.081439999999999735e-01 2.053840000000000110e-01 -1.562289999999999957e+00 1.981380000000000086e-01 1.056000000000000050e+00
-6.725630000000000219e-01 4.339910000000000156e-01 -2.198599999999999860e-02 -1.020920999999999967e+00 7.481200000000000350e-02 -4.245260000000000145e-01 4.468840000000000034e-01 4.875729999999999786e-01 -3.726010000000000155e-01 9.158239999999999714e-01 5.271500000000000075e-01 -1.084516000000000036e+00 1.460710000000000064e-01 2.711640000000000161e-01 -2.621149999999999869e-01 -5.051970000000000072e-01 8.972459999999999880e-01 1.174768000000000034e+00 -2.988830000000000098e-01 3.073679999999999746e-01 4.979439999999999977e-01 2.962350000000000261e-01 1.532429999999999903e-01 -2.421129999999999949e-01 -1.405700000000000005e-02 -4.225920000000000232e-01 -6.729599999999999471e-02 5.999989999999999490e-01 -2.995059999999999945e-01 4.558710000000000262e-01 -4.595569999999999933e-01 -5.188209999999999766e-01 -4.501789999999999958e-01 6.483600000000000474e-02 7.468199999999999839e-02 -1.960129999999999928e-01 6.535180000000000433e-01 -8.087029999999999497e-01 6.029299999999999937e-02 8.799679999999999724e-01 -5.933950000000000058e-01 2.864869999999999917e-01 -5.597050000000000081e-01 -3.613529999999999798e-01 1.159269000000000105e+00 1.055200000000000027e-01 -5.490920000000000245e-01 8.839679999999999760e-01 1.285930000000000129e-01 -4.874390000000000112e-01 -2.457700000000000162e-02 -1.474810000000000010e-01 -3.637509999999999910e-01 -7.588160000000000460e-01 -1.192209999999999936e-01 9.918169999999999487e-01 -9.293489999999999807e-01 -4.398619999999999752e-01 1.856059999999999932e-01 3.154859999999999887e-01
-1.783480000000000065e-01 -2.230590000000000073e-01 8.718409999999999771e-01 -2.889240000000000141e-01 -1.712249999999999883e-01 -9.290370000000000017e-01 1.820222999999999924e+00 1.124641999999999920e+00 1.632190999999999947e+00 -5.183229999999999782e-01 3.485460000000000225e-01 -1.152128999999999959e+00 2.921940000000000093e-01 -1.094320000000000015e-01 1.806220000000000048e-01 -1.614279999999999882e-01 -7.731339999999999879e-01 -6.262900000000000411e-02 7.006900000000000628e-02 -7.067280000000000229e-01 -4.718100000000000072e-01 5.139810000000000212e-01 9.472859999999999614e-01 -1.770079999999999987e-01 -1.789200000000000165e-02 -4.171480000000000188e-01 -4.180789999999999784e-01 3.228150000000000186e-01 1.956759999999999888e-01 -9.450400000000000467e-02 -1.385564999999999936e+00 -6.947839999999999572e-01 -4.191540000000000266e-01 6.892890000000000406e-01 -1.572979999999999934e-01 -4.793729999999999936e-01 2.047339999999999993e-01 -7.185540000000000260e-01 -1.051760000000000028e+00 -1.955220000000000014e-01 1.822900000000000076e-01 8.497740000000000293e-01 -9.622880000000000322e-01 2.250780000000000003e-01 8.950500000000000123e-02 1.956120000000000081e-01 -2.118999999999999790e-03 1.097304000000000057e+00 -1.150280000000000052e-01 1.370722999999999914e+00 -1.949309999999999932e-01 1.578489999999999893e-01 3.646369999999999889e-01 1.429410000000000125e-01 -9.089679999999999982e-01 -6.307270000000000376e-01 4.350450000000000150e-01 4.655210000000000181e-01 -1.546700000000000019e-01 1.511919999999999931e-01
-3.516139999999999821e-01 -6.606649999999999467e-01 -2.756930000000000214e-01 2.523639999999999772e-01 -1.247088999999999892e+00 -1.364530999999999938e+00 1.414400000000000032e-02 4.731190000000000118e-01 -7.899070000000000258e-01 1.108035000000000103e+00 -1.148716000000000070e+00 3.546969999999999845e-01 -7.677969999999999517e-01 -3.345799999999999885e-01 1.024723999999999968e+00 -7.867000000000000728e-03 -3.561019999999999741e-01 9.809199999999999864e-02 5.923429999999999529e-01 1.865350000000000064e-01 3.461759999999999837e-01 1.840539999999999954e-01 6.235840000000000272e-01 2.273719999999999908e-01 2.863699999999999926e-02 1.070062000000000069e+00 9.744500000000000384e-02 8.893529999999999491e-01 2.052110000000000045e-01 6.158979999999999455e-01 -2.282800000000000107e-01 -1.033629999999999965e-01 4.287569999999999992e-01 -1.087094000000000005e+00 -5.334940000000000238e-01 -9.097239999999999771e-01 -7.781780000000000364e-01 9.769079999999999986e-01 9.512599999999999945e-01 -5.408600000000000213e-02 6.024909999999999988e-01 -1.057099999999999984e-01 -5.296539999999999582e-01 -5.125990000000000268e-01 4.435390000000000166e-01 2.183600000000000124e-02 1.025107999999999908e+00 7.351959999999999607e-01 8.001580000000000359e-01 -5.340629999999999544e-01 7.586650000000000338e-01 5.181719999999999660e-01 -2.148009999999999919e-01 -4.805269999999999819e-01 -1.257520000000000027e-01 6.300390000000000157e-01 -1.987822999999999896e+00 -4.787739999999999774e-01 -1.475829999999999920e-01 -1.679059999999999997e-01
-8.912409999999999499e-01 7.647040000000000504e-01 1.121750999999999943e+00 -2.332549999999999901e-01 -9.034510000000000041e-01 6.356319999999999748e-01 -1.053268000000000093e+00 9.847439999999999527e-01 8.964940000000000131e-01 2.742589999999999750e-01 -2.738780000000000103e-01 -2.077205000000000190e+00 -2.190800000000000039e-02 4.712259999999999782e-01 -4.783830000000000027e-01 9.764950000000000019e-01 -3.742719999999999936e-01 -1.611910000000000009e-01 2.776310000000000167e-01 -6.947000000000000397e-02 -7.000499999999999778e-02 -1.264010999999999996e+00 -1.153143000000000029e+00 -1.470126000000000044e+00 7.551060000000000549e-01 -7.986609999999999543e-01 -2.191539999999999877e-01 -3.389699999999999935e-01 -5.772220000000000129e-01 6.713900000000000423e-02 8.742140000000000466e-01 5.632589999999999542e-01 -9.231599999999999806e-01 7.405100000000000016e-01 2.845500000000000113e-02 1.003889000000000031e+00 -5.674770000000000092e-01 2.429719999999999935e-01 -9.909010000000000318e-01 -4.212850000000000206e-01 -9.892870000000000275e-01 -2.558600000000000110e-02 4.900780000000000136e-01 7.077360000000000317e-01 -4.442320000000000157e-01 -4.403139999999999832e-01 -2.463200000000000112e-02 1.697492999999999919e+00 -7.815149999999999597e-01 -1.454900000000000082e-01 -6.501600000000000434e-02 1.875269999999999992e-01 -8.294300000000000284e-02 6.642299999999999593e-02 1.787439999999999862e-01 -2.422360000000000069e-01 6.730500000000000371e-02 1.258680000000000021e+00 1.871588000000000029e+00 1.368832999999999966e+00
-4.999239999999999795e-01 -3.218969999999999887e-01 -8.223390000000000422e-01 -5.330190000000000206e-01 -5.525860000000000216e-01 4.542479999999999851e-01 1.752736999999999989e+00 1.009911000000000003e+00 8.611860000000000070e-01 1.404409000000000018e+00 1.141140000000000043e+00 1.552830000000000044e-01 1.679819999999999924e-01 3.442979999999999929e-01 -1.622240000000000071e-01 1.166946999999999957e+00 -9.812079999999999691e-01 1.240499999999999936e-01 -4.624639999999999862e-01 -5.882389999999999564e-01 5.054669999999999996e-01 -7.430100000000000593e-02 -4.309230000000000005e-01 -4.338239999999999874e-01 -3.767269999999999786e-01 -4.688699999999999812e-02 -7.632500000000000395e-02 6.875069999999999792e-01 -2.975639999999999952e-01 -9.363699999999999801e-02 -9.055929999999999813e-01 -3.176359999999999739e-01 -3.089239999999999764e-01 -1.580507000000000106e+00 -5.344950000000000534e-01 -1.396068000000000087e+00 2.316189999999999916e-01 -1.856089999999999962e-01 9.995939999999999825e-01 -5.700500000000000012e-02 7.159640000000000448e-01 9.797000000000000153e-03 -5.041430000000000078e-01 1.370889999999999886e-01 -6.139499999999999819e-02 -6.376929999999999543e-01 1.022629000000000010e+00 5.254870000000000374e-01 1.031605000000000105e+00 5.085749999999999993e-01 -6.444199999999999928e-02 2.688740000000000019e-01 -2.897770000000000068e-01 -7.257900000000000462e-02 -3.313769999999999771e-01 -2.499820000000000098e-01 -2.581069999999999753e-01 -7.489280000000000381e-01 -8.280099999999999960e-02 1.147510000000000058e-01
6.087540000000000173e-01 -1.847540000000000016e-01 6.554969999999999963e-01 -1.726000000000000104e-02 -2.542309999999999848e-01 -9.169199999999999573e-02 1.112160000000000037e+00 5.826000000000000068e-01 3.506560000000000232e-01 -6.663109999999999866e-01 9.217560000000000198e-01 6.523900000000000532e-02 3.472419999999999951e-01 -2.456349999999999922e-01 -2.161309999999999898e-01 -8.697599999999999776e-01 -1.755180000000000073e-01 -5.659720000000000306e-01 -3.092409999999999881e-01 1.100130000000000052e+00 7.751019999999999577e-01 9.142519999999999536e-01 -4.653209999999999846e-01 -5.314029999999999587e-01 -8.400830000000000242e-01 -6.458730000000000304e-01 -3.887309999999999932e-01 1.047334999999999905e+00 -1.012745999999999924e+00 -6.830730000000000413e-01 -1.079515999999999920e+00 5.043499999999999650e-01 -5.475740000000000052e-01 -6.443500000000000616e-02 2.560209999999999986e-01 -2.271160000000000123e-01 3.214969999999999772e-01 -9.390589999999999771e-01 -2.997810000000000197e-01 -6.909400000000000264e-02 -1.374670000000000059e-01 2.785329999999999750e-01 -5.541580000000000394e-01 5.404550000000000187e-01 3.310830000000000162e-01 1.694579999999999975e-01 -3.449829999999999841e-01 7.336409999999999876e-01 4.374100000000000210e-01 5.810380000000000544e-01 -6.490100000000000036e-02 -5.729830000000000201e-01 -1.206060000000000049e-01 7.640249999999999542e-01 -4.509839999999999960e-01 -2.918400000000000161e-02 -5.479880000000000306e-01 5.357159999999999700e-01 6.902600000000000402e-02 2.105849999999999944e-01
2.044001000000000179e+00 -1.176037999999999917e+00 8.612579999999999680e-01 -1.024000000000000084e-02 -7.201800000000000423e-01 -3.588270000000000071e-01 1.566454999999999931e+00 2.220886000000000138e+00 1.862328999999999901e+00 -9.686299999999999910e-01 -2.417305999999999955e+00 3.082269999999999843e+00 -1.161500000000000032e-01 -1.223338000000000036e+00 9.378640000000000310e-01 1.274029999999999885e-01 9.354660000000000197e-01 -5.158030000000000115e-01 4.499199999999999866e-01 3.310670000000000002e-01 -5.780030000000000445e-01 2.931800000000000031e-02 -1.054689999999999933e-01 -2.821200000000000097e-02 1.248925999999999981e+00 2.421800999999999870e+00 -3.258271999999999835e+00 -2.310246999999999939e+00 7.358700000000000241e-01 -1.013131000000000004e+00 -1.398093999999999948e+00 -1.906722999999999946e+00 -2.284025000000000194e+00 -2.781989999999999741e-01 -3.620619999999999949e-01 -1.013229999999999964e-01 -2.788249999999999895e-01 -1.317520000000000080e-01 -9.309300000000000352e-01 -2.141470000000000040e-01 -8.331399999999999917e-02 -2.547010000000000107e-01 3.709799999999999764e-01 -1.620389999999999886e-01 1.070186000000000082e+00 1.299230000000000107e-01 2.000480000000000036e-01 6.889399999999999968e-01 -8.685199999999999865e-02 2.308910000000000129e-01 -3.534950000000000037e-01 -2.010099999999999942e-01 9.971079999999999943e-01 1.031779999999999919e+00 -5.443569999999999798e-01 -1.186460000000000015e-01 -8.357269999999999976e-01 4.398259999999999947e-01 3.337289999999999979e-01 9.778240000000000265e-01
-6.551500000000000101e-01 1.924289999999999889e-01 7.436099999999999932e-01 5.050740000000000229e-01 -9.271800000000000042e-01 9.995079999999999520e-01 2.745779999999999887e-01 -8.030420000000000336e-01 -3.420599999999999752e-01 3.547980000000000023e-01 3.991790000000000060e-01 -9.278999999999999748e-02 1.473929000000000045e+00 -3.479329999999999923e-01 6.960239999999999760e-01 -3.891890000000000072e-01 -3.692409999999999859e-01 3.942039999999999988e-01 -1.524672000000000027e+00 -4.301860000000000128e-01 1.209780000000000022e-01 -2.725210000000000132e-01 1.706660000000000121e-01 1.054100000000000037e+00 -2.027930000000000010e-01 -1.770950000000000024e-01 4.470430000000000237e-01 -1.197679999999999995e-01 4.935559999999999947e-01 -4.771710000000000118e-01 2.529399999999999982e-01 4.239080000000000070e-01 1.024079999999999990e-01 -7.523840000000000527e-01 3.573290000000000077e-01 1.389999999999999905e-04 7.013629999999999587e-01 2.353900000000000090e-02 -8.223909999999999831e-01 4.634980000000000211e-01 -4.750759999999999983e-01 -6.668110000000000426e-01 -1.148249999999999993e+00 3.822630000000000194e-01 -7.683119999999999949e-01 -2.713470000000000049e-01 5.335029999999999495e-01 -9.292610000000000037e-01 4.611859999999999848e-01 1.029627000000000070e+00 4.358079999999999732e-01 8.095229999999999926e-01 1.351610000000000034e-01 -5.372810000000000086e-01 6.356640000000000068e-01 6.169350000000000112e-01 -2.182070000000000121e-01 -5.964789999999999814e-01 -1.228342999999999963e+00 -1.395349999999999924e-01
-4.587220000000000186e-01 5.197850000000000525e-01 4.491640000000000077e-01 -9.284700000000000175e-01 1.825150000000000106e-01 8.567540000000000155e-01 2.183819999999999928e-01 9.006500000000000616e-02 4.247290000000000232e-01 1.983700000000000047e-02 8.278339999999999588e-01 2.409209999999999963e-01 1.104679999999999968e-01 4.951990000000000003e-01 -2.086329999999999796e+00 -2.560239999999999738e-01 1.112425999999999915e+00 -3.479320000000000190e-01 3.294329999999999758e-01 6.791000000000000161e-03 -5.595329999999999471e-01 1.235350000000000059e-01 1.066030000000000033e+00 -2.091629999999999878e-01 1.452620000000000022e-01 -3.011530000000000040e-01 5.668700000000000128e-02 -1.731010000000000049e-01 -1.178180000000000061e-01 -6.094500000000000473e-01 -4.084920000000000218e-01 1.609839999999999882e-01 1.453669999999999962e-01 7.763179999999999525e-01 -1.222487000000000101e+00 1.766820000000000057e-01 -9.160000000000000390e-04 -3.718460000000000099e-01 -1.179000000000000048e-01 1.849629999999999885e-01 4.281829999999999803e-01 -2.049620000000000053e-01 2.627599999999999936e-01 -8.530200000000000005e-01 1.083356999999999903e+00 5.196400000000000324e-02 -4.404319999999999902e-01 -1.209980000000000055e+00 -4.441599999999999715e-02 -4.035739999999999883e-01 1.830538999999999916e+00 1.223316000000000070e+00 -8.949989999999999890e-01 1.098340000000000011e-01 -5.519999999999999733e-04 -7.951169999999999627e-01 -3.720870000000000011e-01 -1.175545999999999980e+00 5.106330000000000036e-01 3.433050000000000268e-01
-3.283949999999999925e-01 2.715279999999999916e-01 3.656809999999999783e-01 -2.380639999999999978e-01 -3.582400000000000168e-02 -5.107789999999999830e-01 -4.246980000000000199e-01 -4.416660000000000030e-01 6.863730000000000109e-01 -5.731359999999999788e-01 5.957999999999999963e-01 2.494169999999999998e-01 8.801860000000000239e-01 7.893300000000000316e-02 3.114879999999999871e-01 -1.867000000000000048e-01 1.327210000000000056e-01 3.439799999999999802e-02 -1.619400000000000006e-01 4.141199999999999742e-02 1.988250000000000017e-01 -3.118330000000000268e-01 7.798199999999999577e-01 -1.026959999999999956e-01 6.254899999999999904e-01 -1.694299999999999973e-01 -2.078029999999999877e-01 7.413960000000000550e-01 9.544199999999999906e-02 -5.276070000000000482e-01 1.150960000000000039e-01 -8.614499999999999935e-02 -6.885800000000000254e-02 1.793829999999999869e-01 -2.476089999999999958e-01 -3.625240000000000129e-01 1.962579999999999880e-01 -7.595790000000000042e-01 -6.335309999999999553e-01 -1.293500000000000032e-02 1.589199999999999988e-02 1.050275999999999987e+00 -4.707270000000000065e-01 4.446899999999999742e-01 -1.101666999999999952e+00 5.150000000000000498e-04 -8.680550000000000210e-01 -1.456999999999999962e-02 -5.319148000000000209e+00 -3.493193000000000215e+00 1.279158000000000017e+00 6.326400000000000079e-02 2.559170000000000056e-01 -2.562559999999999838e-01 -5.011000000000000176e-02 1.008799999999999975e-02 9.922400000000000664e-02 5.276099999999999568e+00 3.379258000000000095e+00 -4.885499999999999843e-01
-2.042609999999999981e-01 -6.157709999999999573e-01 -3.370150000000000090e-01 2.248950000000000116e-01 2.609790000000000165e-01 4.462889999999999913e-01 -6.895090000000000385e-01 3.624780000000000224e-01 7.466999999999999679e-03 -5.647729999999999695e-01 8.543999999999999512e-03 -1.009827999999999948e+00 6.299999999999999990e-05 -3.157200000000000006e-01 1.212769999999999959e-01 -9.672490000000000254e-01 -2.766000000000000125e-01 6.782519999999999660e-01 2.147209999999999952e-01 3.284000000000000027e-03 6.810900000000000287e-02 -6.133750000000000036e-01 -2.351040000000000074e-01 -1.908509999999999929e-01 1.629463000000000106e+00 -7.795799999999999952e-02 -3.565220000000000056e-01 6.667410000000000281e-01 -4.868330000000000157e-01 -1.362309999999999910e-01 -6.654259999999999620e-01 -1.211030000000000023e-01 5.688689999999999580e-01 -1.790249999999999897e-01 7.771350000000000202e-01 4.012089999999999823e-01 1.653050000000000075e-01 4.216369999999999840e-01 -1.013580000000000036e-01 2.614870000000000250e-01 -1.647969999999999990e-01 -1.109223999999999988e+00 -3.012400000000000078e-01 -4.866399999999999892e-02 -8.479100000000000525e-02 1.406779999999999975e-01 2.324019999999999975e-01 7.087449999999999584e-01 4.598399999999999710e-02 1.364249999999999907e-01 2.765000000000000235e-01 1.025506999999999946e+00 -2.765599999999999725e-01 8.197699999999999432e-02 -4.116659999999999764e-01 -1.985149999999999970e-01 -3.508129999999999860e-01 2.216789999999999872e-01 6.147409999999999819e-01 3.179359999999999964e-01