8.162021679330742074e+00 -4.695011181145538097e-18 -1.326939863954938591e-17 -4.004689681451713668e+00 7.285108986866577929e+00 2.219607936740383566e-17 4.572143686443865818e-01 -5.402903335996093320e-02 1.067942431531125713e+01
8.162023312752241466e+00 7.158726355909849128e-18 3.183745658068421029e-17 -4.004690341686242050e+00 7.285110622534321401e+00 -1.009122861111472069e-17 4.572144988038643887e-01 -5.402953160341356781e-02 1.067942620968489464e+01
8.162026297502952943e+00 3.518262611537149510e-18 2.105974736710059062e-17 -4.004691505606958302e+00 7.285113514784056221e+00 2.103880886505754247e-17 4.572147636745167443e-01 -5.403036881213137133e-02 1.067942962165550824e+01
8.162030704597752262e+00 -1.167295723410179718e-17 -8.356740077279143989e-18 -4.004693202685863263e+00 7.285117675572287510e+00 9.831120613792486107e-18 4.572151714228079866e-01 -5.403144916895663563e-02 1.067943461431893581e+01
8.162036680097672914e+00 2.673805989055471813e-18 2.273935131422739132e-17 -4.004695495060896171e+00 7.285123179854408271e+00 -7.268068774838581468e-18 4.572157363240103578e-01 -5.403268085959478384e-02 1.067944134257753319e+01
8.162044000961076406e+00 -3.949184088662034516e-18 -2.204617954545235558e-17 -4.004698299225963432e+00 7.285129766761749615e+00 -1.181506060135552041e-18 4.572164424329062671e-01 -5.403389512496338531e-02 1.067944954714503147e+01
8.162052265044136945e+00 -8.717973863331050844e-20 1.312932447214340273e-17 -4.004701455892397455e+00 7.285137025034077674e+00 -2.005848201247059161e-17 4.572172618555899182e-01 -5.403495173080924419e-02 1.067945876689279316e+01
8.162061524366501786e+00 -7.366634097175107347e-18 3.381581522498401954e-18 -4.004704976493894009e+00 7.285144957580826031e+00 -1.007477813519534832e-17 4.572182118929242201e-01 -5.403578119271200408e-02 1.067946905263727153e+01
8.162072046018749916e+00 1.863920791299810937e-17 1.316962924627273351e-17 -4.004708962539140771e+00 7.285153741733028099e+00 -2.907843623905900507e-18 4.572193329576303422e-01 -5.403630052964437935e-02 1.067948069773992970e+01
8.162083550929594367e+00 9.301807962631671262e-18 -4.727308653272546907e-18 -4.004713311944408716e+00 7.285163092690865483e+00 -2.573124978925384715e-17 4.572206051349000933e-01 -5.403638226668797812e-02 1.067949339487939220e+01
8.135980620999999857e+00 0.000000000000000000e+00 0.000000000000000000e+00 -3.876919204000000008e+00 7.367373854000000222e+00 0.000000000000000000e+00 5.961994809999999756e-01 -2.898871900000000168e-01 1.048726497100000010e+01
8.135981662000000725e+00 0.000000000000000000e+00 0.000000000000000000e+00 -3.876918981000000208e+00 7.367375986999999959e+00 0.000000000000000000e+00 5.962002309999999694e-01 -2.898889219999999933e-01 1.048726575100000069e+01
8.135983360999999192e+00 0.000000000000000000e+00 0.000000000000000000e+00 -3.876918347999999792e+00 7.367379965999999669e+00 0.000000000000000000e+00 5.962016489999999447e-01 -2.898921830000000255e-01 1.048726703600000043e+01
8.135985721000000837e+00 0.000000000000000000e+00 0.000000000000000000e+00 -3.876917231000000186e+00 7.367385854000000123e+00 0.000000000000000000e+00 5.962038499999999797e-01 -2.898970129999999812e-01 1.048726881700000035e+01
8.135988830000000505e+00 0.000000000000000000e+00 0.000000000000000000e+00 -3.876915540000000160e+00 7.367393855000000435e+00 0.000000000000000000e+00 5.962070339999999691e-01 -2.899035620000000035e-01 1.048727114000000071e+01
8.135992575999999588e+00 0.000000000000000000e+00 0.000000000000000000e+00 -3.876913266999999941e+00 7.367403703999999998e+00 0.000000000000000000e+00 5.962112139999999894e-01 -2.899116030000000177e-01 1.048727390100000001e+01
8.135996716999999379e+00 0.000000000000000000e+00 0.000000000000000000e+00 -3.876910451000000091e+00 7.367414894999999575e+00 0.000000000000000000e+00 5.962162530000000293e-01 -2.899207280000000164e-01 1.048727690700000004e+01
8.136001237000000330e+00 0.000000000000000000e+00 0.000000000000000000e+00 -3.876907001999999824e+00 7.367427503000000044e+00 0.000000000000000000e+00 5.962222579999999494e-01 -2.899310039999999922e-01 1.048728013000000026e+01
8.136006273999999650e+00 0.000000000000000000e+00 0.000000000000000000e+00 -3.876902729999999853e+00 7.367441957999999680e+00 0.000000000000000000e+00 5.962295560000000494e-01 -2.899427780000000121e-01 1.048728364399999968e+01
8.136011728999999804e+00 0.000000000000000000e+00 0.000000000000000000e+00 -3.876897631999999927e+00 7.367458007999999836e+00 0.000000000000000000e+00 5.962381620000000160e-01 -2.899558469999999888e-01 1.048728734500000037e+01
8.298771503999999410e+00 0.000000000000000000e+00 0.000000000000000000e+00 -4.068966819999999984e+00 7.136853615999999789e+00 0.000000000000000000e+00 2.021832630000000020e-01 -3.357195110000000260e-01 1.077449814600000089e+01
8.298773973999999498e+00 0.000000000000000000e+00 0.000000000000000000e+00 -4.068967899999999638e+00 7.136854654999999603e+00 0.000000000000000000e+00 2.021825220000000034e-01 -3.357208070000000100e-01 1.077450065100000032e+01
8.298778499999999170e+00 0.000000000000000000e+00 0.000000000000000000e+00 -4.068969902000000083e+00 7.136856434000000249e+00 0.000000000000000000e+00 2.021812729999999947e-01 -3.357231450000000006e-01 1.077450526700000033e+01
8.298785197000000835e+00 0.000000000000000000e+00 0.000000000000000000e+00 -4.068972872999999879e+00 7.136858949999999702e+00 0.000000000000000000e+00 2.021795359999999930e-01 -3.357264629999999750e-01 1.077451211099999995e+01
8.298794312000000062e+00 0.000000000000000000e+00 0.000000000000000000e+00 -4.068976913000000195e+00 7.136862257999999848e+00 0.000000000000000000e+00 2.021773030000000027e-01 -3.357307259999999793e-01 1.077452142699999982e+01
8.298805460000000522e+00 0.000000000000000000e+00 0.000000000000000000e+00 -4.068981836999999935e+00 7.136866160000000292e+00 0.000000000000000000e+00 2.021747269999999985e-01 -3.357356249999999820e-01 1.077453281700000076e+01
8.298818097999999921e+00 0.000000000000000000e+00 0.000000000000000000e+00 -4.068987397999999978e+00 7.136870412000000385e+00 0.000000000000000000e+00 2.021719939999999938e-01 -3.357408399999999848e-01 1.077454571600000044e+01
8.298832454999999442e+00 0.000000000000000000e+00 0.000000000000000000e+00 -4.068993683000000416e+00 7.136875035000000089e+00 0.000000000000000000e+00 2.021691140000000109e-01 -3.357463840000000088e-01 1.077456034899999970e+01
8.298848970999999963e+00 0.000000000000000000e+00 0.000000000000000000e+00 -4.069000857999999887e+00 7.136880112000000054e+00 0.000000000000000000e+00 2.021660670000000048e-01 -3.357522900000000088e-01 1.077457713999999989e+01
8.298867101000000801e+00 0.000000000000000000e+00 0.000000000000000000e+00 -4.069008657000000362e+00 7.136885408000000375e+00 0.000000000000000000e+00 2.021630229999999973e-01 -3.357582370000000149e-01 1.077459550999999927e+01
8.347891558000000600e+00 0.000000000000000000e+00 0.000000000000000000e+00 -3.887110384000000085e+00 7.314515074000000006e+00 0.000000000000000000e+00 2.468734119999999865e-01 1.493090999999999993e-03 1.075648263100000079e+01
8.347894538000000253e+00 0.000000000000000000e+00 0.000000000000000000e+00 -3.887111001000000066e+00 7.314517090999999915e+00 0.000000000000000000e+00 2.468727490000000024e-01 1.492779000000000068e-03 1.075648537300000029e+01
8.347900107999999264e+00 0.000000000000000000e+00 0.000000000000000000e+00 -3.887112155000000069e+00 7.314520718999999893e+00 0.000000000000000000e+00 2.468717229999999874e-01 1.492363000000000023e-03 1.075649037300000010e+01
8.347908469000000053e+00 0.000000000000000000e+00 0.000000000000000000e+00 -3.887113881999999965e+00 7.314526048000000280e+00 0.000000000000000000e+00 2.468703449999999910e-01 1.491935000000000006e-03 1.075649775099999950e+01
8.347919918000000550e+00 0.000000000000000000e+00 0.000000000000000000e+00 -3.887116235000000142e+00 7.314533234999999856e+00 0.000000000000000000e+00 2.468685949999999962e-01 1.491598000000000012e-03 1.075650770899999920e+01
8.347933947999999660e+00 0.000000000000000000e+00 0.000000000000000000e+00 -3.887119091999999831e+00 7.314541914000000311e+00 0.000000000000000000e+00 2.468665959999999937e-01 1.491483999999999952e-03 1.075651974200000005e+01
8.347949943999999789e+00 0.000000000000000000e+00 0.000000000000000000e+00 -3.887122318999999937e+00 7.314551651000000376e+00 0.000000000000000000e+00 2.468644959999999888e-01 1.491696999999999945e-03 1.075653325200000054e+01
8.347968306000000283e+00 0.000000000000000000e+00 0.000000000000000000e+00 -3.887125979999999981e+00 7.314562639000000033e+00 0.000000000000000000e+00 2.468622970000000083e-01 1.492344000000000049e-03 1.075654850799999984e+01
8.347989564000000584e+00 0.000000000000000000e+00 0.000000000000000000e+00 -3.887130158999999807e+00 7.314575142999999890e+00 0.000000000000000000e+00 2.468599680000000129e-01 1.493570999999999961e-03 1.075656587399999964e+01
8.348012922000000557e+00 0.000000000000000000e+00 0.000000000000000000e+00 -3.887134673999999901e+00 7.314588639000000114e+00 0.000000000000000000e+00 2.468576349999999919e-01 1.495454999999999918e-03 1.075658462400000026e+01
7.935438727000000192e+00 0.000000000000000000e+00 0.000000000000000000e+00 -3.713669418999999916e+00 7.440702309999999819e+00 0.000000000000000000e+00 6.594580979999999926e-01 -2.478824159999999943e-01 1.091029203799999969e+01
7.935439053999999715e+00 0.000000000000000000e+00 0.000000000000000000e+00 -3.713668547999999792e+00 7.440704898999999983e+00 0.000000000000000000e+00 6.594590070000000415e-01 -2.478842290000000115e-01 1.091029497799999959e+01
7.935439575000000190e+00 0.000000000000000000e+00 0.000000000000000000e+00 -3.713666858999999931e+00 7.440709671999999664e+00 0.000000000000000000e+00 6.594606079999999482e-01 -2.478877230000000043e-01 1.091030039500000015e+01
7.935440297000000420e+00 0.000000000000000000e+00 0.000000000000000000e+00 -3.713664360000000109e+00 7.440716682999999776e+00 0.000000000000000000e+00 6.594628529999999600e-01 -2.478928980000000004e-01 1.091030839699999966e+01
7.935441260000000163e+00 0.000000000000000000e+00 0.000000000000000000e+00 -3.713661001000000184e+00 7.440726208000000064e+00 0.000000000000000000e+00 6.594657569999999858e-01 -2.478998920000000106e-01 1.091031936799999968e+01
7.935442434999999683e+00 0.000000000000000000e+00 0.000000000000000000e+00 -3.713656884000000158e+00 7.440738030000000336e+00 0.000000000000000000e+00 6.594691809999999599e-01 -2.479084970000000054e-01 1.091033311800000050e+01
7.935443742000000356e+00 0.000000000000000000e+00 0.000000000000000000e+00 -3.713652226999999861e+00 7.440751536999999693e+00 0.000000000000000000e+00 6.594728899999999783e-01 -2.479182550000000040e-01 1.091034897199999953e+01
7.935445148000000337e+00 0.000000000000000000e+00 0.000000000000000000e+00 -3.713647046000000174e+00 7.440766657000000173e+00 0.000000000000000000e+00 6.594768130000000506e-01 -2.479291200000000028e-01 1.091036687399999927e+01
7.935446685999999694e+00 0.000000000000000000e+00 0.000000000000000000e+00 -3.713641174000000156e+00 7.440783915999999998e+00 0.000000000000000000e+00 6.594810180000000299e-01 -2.479414359999999873e-01 1.091038748999999974e+01
7.935448335000000242e+00 0.000000000000000000e+00 0.000000000000000000e+00 -3.713634637000000183e+00 7.440803297999999621e+00 0.000000000000000000e+00 6.594854190000000171e-01 -2.479551429999999890e-01 1.091041086200000088e+01
