2.204886303925579050e+00 1.291083480144403550e+00 2.013232860391369616e+00 2.025460384583977480e-01 4.933641942802622360e+00 2.013235271254598224e+00 6.285894622672320686e+00 1.291087498648962884e+00 2.013230924780258668e+00 4.283554357205139773e+00 4.933645961307181693e+00 2.013233335643486832e+00 3.022883723622147301e-01 2.580737662282844624e+00 8.659062028569231018e+00 -1.700052165704095675e+00 6.223286149970880921e+00 8.659054418172079437e+00 4.383296636156885029e+00 2.580731680966382058e+00 8.659060069298062601e+00 2.380956370689704560e+00 6.223290143624600645e+00 8.659062480161290765e+00 4.246565911401996907e+00 6.772004388732653979e+00 2.157892036687784551e-02 6.248916391996420572e+00 3.129445846799664643e+00 2.158628932424909788e-02 1.655575926552551314e-01 6.772000370228094646e+00 2.158085597798885952e-02 2.167907910554692119e+00 3.129451852966967262e+00 2.157825099509521824e-02 2.295895366336071053e+00 1.271251809524709842e+00 7.330718817081767646e+00 2.935551008688897512e-01 4.913810272182929317e+00 7.330721227944996699e+00 6.376903685082813134e+00 1.271255828029269175e+00 7.330716881470657142e+00 4.374563364663560883e+00 4.913804290866465863e+00 7.330719268673827393e+00 1.794607234932149853e-01 2.547080549565012841e+00 3.334253912849302726e+00 -1.822879541973966289e+00 6.189639012223231873e+00 3.334256323712530445e+00 4.260469042239957815e+00 2.547084568069572175e+00 3.334251977238191333e+00 2.258128721820704676e+00 6.189633030906768418e+00 3.334254364441362917e+00
2.208745898591096601e+00 1.284014633147682050e+00 2.012181038132412336e+00 2.012182685590160058e-01 4.939838167404148273e+00 2.009508673197344830e+00 6.288252578424061490e+00 1.286130722066291643e+00 2.014807664468343251e+00 4.276954245493015172e+00 4.934431676345227835e+00 2.017700008881427198e+00 2.990419160435201507e-01 2.579292618083717237e+00 8.651817356951536198e+00 -1.702569808084980707e+00 6.220362645289441161e+00 8.645228630561787142e+00 4.390097389640196468e+00 2.585698304292395555e+00 8.653182984599007810e+00 2.377493632442047922e+00 6.226449127129219718e+00 8.659105705670150144e+00 4.244668946870053361e+00 6.774493774846426675e+00 2.203650253768727266e-02 6.243418240395180341e+00 3.132040993503519832e+00 2.797393633806691954e-02 1.629519774386452846e-01 6.766579530076763938e+00 1.949359369043737397e-02 2.169306488359522778e+00 3.118653436518246558e+00 2.603204475663583456e-02 2.297675263891390873e+00 1.264754872163597721e+00 7.333694646570722675e+00 2.843366846188689623e-01 4.923380038875548870e+00 7.335396767263633322e+00 6.371244627982842523e+00 1.264179321187734795e+00 7.338104235739711712e+00 4.389924785402520513e+00 4.911145264484855666e+00 7.332648786314303280e+00 1.827821369274648111e-01 2.550912396806636728e+00 3.334241142424832827e+00 -1.819314641573970048e+00 6.197962972181030317e+00 3.332819075096558503e+00 4.263766551933767524e+00 2.540152808284173780e+00 3.339964352231451272e+00 2.260288255365921817e+00 6.204095096113044328e+00 3.341154957517080692e+00
2.212704478752922643e+00 1.276765244937650534e+00 2.011126612505054645e+00 1.998597538207096680e-01 4.946214750562565321e+00 2.005703174330644600e+00 6.290671437945091427e+00 1.281063446969255892e+00 2.016452820936073032e+00 4.270167448165906876e+00 4.935258076721132703e+00 2.022310881957342765e+00 2.957210667372681678e-01 2.577798426592086578e+00 8.644384137499162790e+00 -1.705155983618088067e+00 6.217350386819280317e+00 8.631034026352205402e+00 4.397095977119924726e+00 2.590794158766393185e+00 8.647171883702654327e+00 2.373961621125763699e+00 6.229658439791168512e+00 8.659170570219794527e+00 4.242711671713190746e+00 6.777003537064974381e+00 2.247544476701457059e-02 6.237773065742886480e+00 3.134656633468041687e+00 3.449486697145018321e-02 1.602833191229026122e-01 6.760959243711424982e+00 1.731718753067294087e-02 2.170764978640683296e+00 3.107524500734582418e+00 3.056373245196192245e-02 2.299489172357601863e+00 1.258117226305152325e+00 7.336889438998271729e+00 2.748752006674328729e-01 4.933210539123710880e+00 7.340328307019842846e+00 6.365431696236801606e+00 1.256942891964236031e+00 7.345814619651413580e+00 4.405660463062281096e+00 4.908443702363014971e+00 7.334780102050959094e+00 1.862003215919899590e-01 2.554874144292120342e+00 3.334046545380949578e+00 -1.815662853387350895e+00 6.206516934614493941e+00 3.331180459502728564e+00 4.267162939248883902e+00 2.533060531680420446e+00 3.345664173873957647e+00 2.262510624324221009e+00 6.218956752666062293e+00 3.348085184189494523e+00
2.216614656429211738e+00 1.269646026881130041e+00 2.010113573962468259e+00 1.985230263339098078e-01 4.952520977674286229e+00 2.001997050100566167e+00 6.293070526586541646e+00 1.276116327445360188e+00 2.018078702363994559e+00 4.263460468465660291e+00 4.936094065842853595e+00 2.026910039143705156e+00 2.924326583060618545e-01 2.576313798616194362e+00 8.637060261895586066e+00 -1.707726991036530917e+00 6.214367502435461432e+00 8.617069219685971504e+00 4.403996433761235174e+00 2.595790285639445027e+00 8.641272698011457365e+00 2.370509585221701077e+00 6.232787268815514814e+00 8.659253498464130061e+00 4.240782807175308200e+00 6.779423261261139366e+00 2.286353292260961609e-02 6.232224597315072501e+00 3.137192052780613860e+00 4.088346231840131462e-02 1.576448740365308521e-01 6.755378793336139331e+00 1.514022240217266155e-02 2.172221352172853504e+00 3.096485861235551695e+00 3.497566200464417852e-02 2.301255440557843368e+00 1.251629675903541017e+00 7.340155658642432357e+00 2.655639427317190715e-01 4.942890101715869733e+00 7.345306213002973372e+00 6.359699458031914610e+00 1.249836024409735069e+00 7.353523569595480147e+00 4.421118119326322926e+00 4.905813488573508963e+00 7.336987664750071580e+00 1.895945936308706670e-01 2.558836448055281654e+00 3.333672427004455319e+00 -1.812064213373903776e+00 6.214971469573098872e+00 3.329422724527786759e+00 4.270505102585850921e+00 2.526109095781536418e+00 3.351135471239262031e+00 2.264686898950391658e+00 6.233619201876664739e+00 3.354785863973586135e+00
2.220417376611301563e+00 1.262747254799352348e+00 2.009163436940680114e+00 1.972383983495863136e-01 4.958656587751090861e+00 1.998429401347268319e+00 6.295430289013706826e+00 1.271369472902276421e+00 2.019685932302587528e+00 4.256921594080847804e+00 4.936909329681686387e+00 2.031425465713692979e+00 2.892391806876367100e-01 2.574858133257773130e+00 8.629954444540912206e+00 -1.710257554957311577e+00 6.211463309501893626e+00 8.603563839021783011e+00 4.410711337923372888e+00 2.600636853336152576e+00 8.635617237290222903e+00 2.367187835141324026e+00 6.235775268679584649e+00 8.659383252350192350e+00 4.238911905915386136e+00 6.781712811186564771e+00 2.319002106093388457e-02 6.226840582818774728e+00 3.139597097166794804e+00 4.704810009946170518e-02 1.550681051997702953e-01 6.749907890225138374e+00 1.301219912988764091e-02 2.173674800906083338e+00 3.085707714529374535e+00 3.918825461544366007e-02 2.302953700873685783e+00 1.245422451898277272e+00 7.343444060237667159e+00 2.565800273316719005e-01 4.952257973007235137e+00 7.350236208575936736e+00 6.354125832168945109e+00 1.242958581112740157e+00 7.361109607423428791e+00 4.436066943666798323e+00 4.903295999297172969e+00 7.339226589422284341e+00 1.929146357922943422e-01 2.562739581069677808e+00 3.333119734410382673e+00 -1.808588876631002318e+00 6.223176885248432377e+00 3.327577033463874123e+00 4.273751532691902000e+00 2.519378941691238882e+00 3.356289325591040207e+00 2.266794132764585079e+00 6.247862755829237891e+00 3.361176931133785128e+00
2.224280352538634542e+00 1.255818106907185427e+00 2.008231917054069005e+00 1.959546464278350275e-01 4.964872146988317247e+00 1.994881936231555963e+00 6.297850526997206266e+00 1.266632241033273987e+00 2.021311873654345170e+00 4.250275415281946856e+00 4.937734893295949945e+00 2.036063281525776425e+00 2.859846840137086899e-01 2.573372895763460289e+00 8.622809872028931011e+00 -1.712869947817693861e+00 6.208539752893297958e+00 8.589980171589839841e+00 4.417497043519862387e+00 2.605512965546608939e+00 8.629990315067670892e+00 2.363886950441479229e+00 6.238723037134223937e+00 8.659562462790091786e+00 4.237009705507189139e+00 6.783962648524063610e+00 2.346707839174187391e-02 6.221406416687428553e+00 3.141972412992922070e+00 5.321375472498017511e-02 1.524594898479688099e-01 6.744337301252313566e+00 1.082460585667413197e-02 2.175176595572518412e+00 3.074749373056851365e+00 4.336933893951130242e-02 2.304645013824857980e+00 1.239254959310448045e+00 7.346862742645780209e+00 2.475786775702198961e-01 4.961655680424196468e+00 7.355276683444810004e+00 6.348514881837656887e+00 1.236051032964097462e+00 7.368826413425287214e+00 4.451077823230447983e+00 4.900797959811902693e+00 7.341554231928657970e+00 1.963103121368214299e-01 2.566762848631422678e+00 3.332335638247481580e+00 -1.805096641097766019e+00 6.231452589346391235e+00 3.325571109978813666e+00 4.277035722089166825e+00 2.512638818311288436e+00 3.361342308362605724e+00 2.268910936775316411e+00 6.262226377578611114e+00 3.367518075191284765e+00
2.228312294017442685e+00 1.248668012957006690e+00 2.007306172298766178e+00 1.946302088104149008e-01 4.971318143232492659e+00 1.991245908667699016e+00 6.300401815820719342e+00 1.261814129779709415e+00 2.023004778365900869e+00 4.243344589353148066e+00 4.938611463092790643e+00 2.040937476973716969e+00 2.825841781937949437e-01 2.571819066504665408e+00 8.615408245556190892e+00 -1.715651612176487317e+00 6.205508061710033552e+00 8.575999825051770387e+00 4.424531605590467542e+00 2.610547937475554470e+00 8.624268349133922484e+00 2.360498373327022836e+00 6.241691045760396683e+00 8.659843657531871131e+00 4.235036053176579607e+00 6.786223041216607577e+00 2.367570179196825872e-02 6.215786107878958688e+00 3.144368340946240181e+00 5.955355450301239723e-02 1.497368607177782251e-01 6.738507613826858922e+00 8.518822677941791793e-03 2.176786757656608451e+00 3.063300317746440626e+00 4.759685688555571892e-02 2.306370394577923477e+00 1.232996782577727268e+00 7.350490508691746250e+00 2.383538192037440995e-01 4.971314062454165850e+00 7.360552727874208223e+00 6.342720007083470612e+00 1.228933702518090421e+00 7.376876781765996149e+00 4.466531145385525647e+00 4.898247203202241273e+00 7.344002143553778339e+00 1.998718227289688620e-01 2.571025807559103704e+00 3.331298468006740787e+00 -1.801497411379603619e+00 6.240018210766578477e+00 3.323353528139016078e+00 4.280439542308564604e+00 2.505677946563189984e+00 3.366432148261438773e+00 2.271093846755668277e+00 6.277109290608361647e+00 3.374009107854738510e+00
2.232384388031444011e+00 1.241507676571890428e+00 2.006389530496642593e+00 1.933269116652427677e-01 4.977813930395120323e+00 1.987649554068890101e+00 6.303033469069054817e+00 1.257065581549333677e+00 2.024696106920575556e+00 4.236316400544126282e+00 4.939488278720862269e+00 2.045933821573921119e+00 2.791234143652762123e-01 2.570255589135058472e+00 8.607997904424296465e+00 -1.718543086410058596e+00 6.202466944962905515e+00 8.562031847651276451e+00 4.431618223262767664e+00 2.615602413315576413e+00 8.618635320281457624e+00 2.357141525214053068e+00 6.244578644220021957e+00 8.660223985605846053e+00 4.233030500652270156e+00 6.788413772114201272e+00 2.381482978780561852e-02 6.210124936600236900e+00 3.146724561460175096e+00 6.586413833909207649e-02 1.469827117344564560e-01 6.732598215349720583e+00 6.163515306782469706e-03 2.178464554487733906e+00 3.051701057968875475e+00 5.175251232749636388e-02 2.308087960291252738e+00 1.226858484300004770e+00 7.354188759778991447e+00 2.292094284923211489e-01 4.980941935346679728e+00 7.365856951712753897e+00 6.336896227607623722e+00 1.221816410961691357e+00 7.384977791912237244e+00 4.481945132448037938e+00 4.895736613864716702e+00 7.346471016310468727e+00 2.035088039084466116e-01 2.575418925305110296e+00 3.330019920617897089e+00 -1.797900955982890681e+00 6.248594155315330134e+00 3.321006000767674937e+00 4.283871015694257878e+00 2.498727184574918159e+00 3.371411385126553473e+00 2.273266598857976550e+00 6.292042306851520550e+00 3.380480481338014265e+00
2.236389124554764241e+00 1.234587567600555102e+00 2.005534966536191011e+00 1.920659351278211913e-01 4.984139130005905471e+00 1.984201890460607132e+00 6.305655137944348176e+00 1.252557232367007778e+00 2.026328235173448622e+00 4.229427196134396105e+00 4.940344432004227571e+00 2.050887079598379348e+00 2.757175366518003767e-01 2.568711291983538647e+00 8.600806469077124206e+00 -1.721462572892820342e+00 6.199544750952830974e+00 8.548584901038442041e+00 4.438511032332021600e+00 2.620507184473456430e+00 8.613326215225447058e+00 2.353925937505508159e+00 6.247265210359425502e+00 8.660710765437881875e+00 4.231052702715347280e+00 6.790474515988895732e+00 2.388301384931527591e-02 6.204628002253224750e+00 3.148950430611602069e+00 7.194076734479785962e-02 1.442798076174829081e-01 6.726798468230321681e+00 3.837372545583338842e-03 2.180168111554385835e+00 3.040322252232690925e+00 5.565809500976290347e-02 2.309726436685243467e+00 1.221080738707881697e+00 7.357839616798798943e+00 2.204896847997040721e-01 4.990167822579527623e+00 7.371010898539550382e+00 6.331278981266641459e+00 1.214948518197320748e+00 7.392854872652470100e+00 4.496787419053569934e+00 4.893329397727442576e+00 7.348842565552613060e+00 2.071109496944701089e-01 2.579802752992760073e+00 3.328522055863176732e+00 -1.794437094459904403e+00 6.256890936429023498e+00 3.318610654590053777e+00 4.287217461607169433e+00 2.492007574274277104e+00 3.376102977894812174e+00 2.275371887619428435e+00 6.306526229014544960e+00 3.386722152270949415e+00
2.240424783467297232e+00 1.227757244321997288e+00 2.004699957110880781e+00 1.908467973287077679e-01 4.990443888795354610e+00 1.980843286389529112e+00 6.308337018079424041e+00 1.248208628810393295e+00 2.027929441941231925e+00 4.222479965572984106e+00 4.941200688552999765e+00 2.055931621985061852e+00 2.722629229708075638e-01 2.567157118751961953e+00 8.593676084337628751e+00 -1.724496693224183419e+00 6.196682638009949784e+00 8.535370654162880655e+00 4.445367930162918313e+00 2.625361678138907529e+00 8.608217814451414540e+00 2.350793097940126142e+00 6.249820946654771170e+00 8.661355456366649719e+00 4.229052128539796840e+00 6.792425619400328074e+00 2.385139633371197512e-02 6.199158226462157195e+00 3.151096411595639246e+00 7.790657941175821444e-02 1.415560904094139150e-01 6.720968905055764608e+00 1.481600994890875213e-03 2.181948053897917905e+00 3.028883385054108590e+00 5.941182907680476327e-02 2.311326622829825261e+00 1.215533157717223922e+00 7.361511884048551835e+00 2.120272533147434246e-01 4.999192472946949017e+00 7.376088726261524897e+00 6.325710258554452459e+00 1.208170576286071496e+00 7.400641098466776313e+00 4.511378139840154233e+00 4.890983765603827749e+00 7.351129722108852960e+00 2.107678634320658273e-01 2.584306923247825072e+00 3.326753232913081781e+00 -1.791025783701080787e+00 6.265078215474728651e+00 3.316126158260857437e+00 4.290540924899953978e+00 2.485378469316215977e+00 3.380635257036467944e+00 2.277445436216380514e+00 6.320890441244472413e+00 3.392914203931691297e+00
2.247720000000000162e+00 1.259509999999999907e+00 1.981279999999999930e+00 2.987900000000000000e-01 4.948220000000000063e+00 1.972110000000000030e+00 6.313620000000000232e+00 1.258140000000000036e+00 1.974590000000000067e+00 4.375569999999999737e+00 4.946310000000000429e+00 1.979009999999999936e+00 4.481800000000000228e-01 2.416319999999999801e+00 8.502689999999999415e+00 -1.483859999999999957e+00 6.099610000000000198e+00 8.500709999999999766e+00 4.525260000000000282e+00 2.418250000000000011e+00 8.505010000000000403e+00 2.580259999999999998e+00 6.101619999999999600e+00 8.497130000000000294e+00 4.341199999999999726e+00 6.848480000000000345e+00 2.006000000000000144e-02 6.274269999999999570e+00 3.161169999999999813e+00 2.680000000000000090e-02 2.752299999999999747e-01 6.847579999999999778e+00 2.299000000000000002e-02 2.209779999999999855e+00 3.167170000000000041e+00 1.213000000000000016e-02 2.399640000000000217e+00 1.129080000000000084e+00 7.201060000000000016e+00 4.663599999999999968e-01 4.808309999999999640e+00 7.200809999999999711e+00 6.473040000000000127e+00 1.124020000000000019e+00 7.198269999999999946e+00 4.537469999999999892e+00 4.810310000000000308e+00 7.202049999999999841e+00 2.608400000000000163e-01 2.499579999999999913e+00 3.276149999999999896e+00 -1.674870000000000081e+00 6.179450000000000109e+00 3.278150000000000119e+00 4.325650000000000439e+00 2.506270000000000220e+00 3.269600000000000062e+00 2.391090000000000160e+00 6.185550000000000104e+00 3.279170000000000140e+00
2.237569999999999837e+00 1.260869999999999935e+00 1.983659999999999979e+00 3.040700000000000069e-01 4.949600000000000222e+00 1.967819999999999903e+00 6.307140000000000413e+00 1.259050000000000002e+00 1.975049999999999972e+00 4.378510000000000346e+00 4.944169999999999732e+00 1.980960000000000054e+00 4.476700000000000124e-01 2.423369999999999802e+00 8.498039999999999594e+00 -1.492490000000000094e+00 6.103220000000000312e+00 8.499670000000000059e+00 4.520859999999999879e+00 2.415999999999999925e+00 8.510329999999999728e+00 2.572029999999999816e+00 6.098880000000000301e+00 8.490949999999999775e+00 4.352870000000000239e+00 6.840819999999999901e+00 2.026999999999999982e-02 6.275019999999999598e+00 3.160369999999999902e+00 3.719999999999999696e-02 2.774900000000000144e-01 6.846180000000000376e+00 2.002999999999999919e-02 2.213589999999999947e+00 3.165900000000000158e+00 1.293000000000000052e-02 2.401639999999999997e+00 1.134919999999999929e+00 7.201780000000000292e+00 4.503300000000000081e-01 4.804160000000000430e+00 7.196489999999999831e+00 6.475200000000000067e+00 1.124100000000000099e+00 7.207309999999999661e+00 4.540289999999999715e+00 4.808480000000000310e+00 7.191029999999999589e+00 2.743700000000000028e-01 2.492459999999999898e+00 3.276940000000000186e+00 -1.666290000000000049e+00 6.184359999999999857e+00 3.288759999999999906e+00 4.330980000000000274e+00 2.508919999999999817e+00 3.263149999999999995e+00 2.398120000000000029e+00 6.185859999999999914e+00 3.280139999999999834e+00
2.227149999999999963e+00 1.262250000000000094e+00 1.986099999999999977e+00 3.095600000000000018e-01 4.950980000000000381e+00 1.963430000000000009e+00 6.300519999999999676e+00 1.259959999999999969e+00 1.975549999999999917e+00 4.381590000000000096e+00 4.941970000000000418e+00 1.982969999999999899e+00 4.471600000000000019e-01 2.430660000000000043e+00 8.493209999999999482e+00 -1.501370000000000093e+00 6.106980000000000075e+00 8.498519999999999186e+00 4.516350000000000087e+00 2.413710000000000022e+00 8.515739999999999199e+00 2.563579999999999970e+00 6.096059999999999590e+00 8.484519999999999840e+00 4.364860000000000184e+00 6.832930000000000170e+00 2.058000000000000107e-02 6.275780000000000136e+00 3.159539999999999793e+00 4.796000000000000263e-02 2.797999999999999932e-01 6.844750000000000334e+00 1.703999999999999959e-02 2.217459999999999987e+00 3.164579999999999949e+00 1.387000000000000038e-02 2.403719999999999857e+00 1.140819999999999945e+00 7.202600000000000335e+00 4.338400000000000034e-01 4.799830000000000041e+00 7.192120000000000068e+00 6.477420000000000400e+00 1.124109999999999943e+00 7.216709999999999958e+00 4.543169999999999931e+00 4.806510000000000282e+00 7.179789999999999672e+00 2.882100000000000217e-01 2.485250000000000181e+00 3.277660000000000018e+00 -1.657499999999999973e+00 6.189499999999999780e+00 3.299589999999999801e+00 4.336389999999999745e+00 2.511709999999999887e+00 3.256440000000000001e+00 2.405279999999999863e+00 6.186259999999999870e+00 3.281019999999999825e+00
2.216889999999999805e+00 1.263570000000000082e+00 1.988510000000000000e+00 3.150499999999999967e-01 4.952309999999999768e+00 1.959119999999999973e+00 6.294030000000000236e+00 1.260809999999999986e+00 1.976069999999999993e+00 4.384699999999999598e+00 4.939790000000000347e+00 1.984979999999999967e+00 4.466700000000000115e-01 2.437910000000000021e+00 8.488410000000000011e+00 -1.510150000000000103e+00 6.110739999999999839e+00 8.497299999999999187e+00 4.511919999999999931e+00 2.411490000000000133e+00 8.521010000000000417e+00 2.555250000000000021e+00 6.093270000000000408e+00 8.478070000000000661e+00 4.376699999999999591e+00 6.825120000000000076e+00 2.101000000000000090e-02 6.276559999999999917e+00 3.158729999999999816e+00 5.863999999999999768e-02 2.820699999999999874e-01 6.843329999999999913e+00 1.416000000000000071e-02 2.221229999999999816e+00 3.163269999999999804e+00 1.490999999999999964e-02 2.405790000000000095e+00 1.146570000000000089e+00 7.203500000000000014e+00 4.175099999999999922e-01 4.795490000000000030e+00 7.187870000000000203e+00 6.479610000000000092e+00 1.124039999999999928e+00 7.226110000000000255e+00 4.545989999999999753e+00 4.804459999999999731e+00 7.168779999999999930e+00 3.017799999999999927e-01 2.478229999999999933e+00 3.278290000000000148e+00 -1.648849999999999927e+00 6.194659999999999833e+00 3.310189999999999966e+00 4.341680000000000206e+00 2.514549999999999841e+00 3.249750000000000139e+00 2.412319999999999798e+00 6.186749999999999972e+00 3.281769999999999854e+00
2.206980000000000164e+00 1.264780000000000015e+00 1.990820000000000034e+00 3.204299999999999926e-01 4.953570000000000029e+00 1.954970000000000097e+00 6.287779999999999703e+00 1.261589999999999989e+00 1.976599999999999913e+00 4.387809999999999988e+00 4.937669999999999781e+00 1.986939999999999928e+00 4.461999999999999855e-01 2.444990000000000219e+00 8.483729999999999549e+00 -1.518680000000000030e+00 6.114429999999999588e+00 8.496010000000000062e+00 4.507649999999999935e+00 2.409380000000000077e+00 8.526059999999999306e+00 2.547180000000000000e+00 6.090530000000000221e+00 8.471700000000000230e+00 4.388189999999999813e+00 6.817510000000000403e+00 2.155999999999999930e-02 6.277359999999999829e+00 3.157950000000000035e+00 6.904000000000000414e-02 2.842899999999999872e-01 6.841960000000000264e+00 1.141000000000000000e-02 2.224839999999999929e+00 3.161989999999999856e+00 1.606000000000000136e-02 2.407830000000000137e+00 1.152050000000000018e+00 7.204439999999999955e+00 4.016299999999999870e-01 4.791229999999999656e+00 7.183799999999999741e+00 6.481709999999999638e+00 1.123920000000000030e+00 7.235339999999999883e+00 4.548659999999999926e+00 4.802389999999999937e+00 7.158190000000000275e+00 3.148099999999999787e-01 2.471560000000000201e+00 3.278849999999999820e+00 -1.640460000000000029e+00 6.199729999999999741e+00 3.320370000000000044e+00 4.346720000000000361e+00 2.517370000000000108e+00 3.243199999999999861e+00 2.419090000000000185e+00 6.187310000000000088e+00 3.282379999999999853e+00
2.197080000000000144e+00 1.265910000000000091e+00 1.993109999999999937e+00 3.259099999999999775e-01 4.954810000000000159e+00 1.950830000000000064e+00 6.281559999999999810e+00 1.262310000000000043e+00 1.977170000000000094e+00 4.391060000000000407e+00 4.935529999999999973e+00 1.988930000000000087e+00 4.457200000000000051e-01 2.452160000000000117e+00 8.479010000000000602e+00 -1.527290000000000036e+00 6.118190000000000239e+00 8.494600000000000151e+00 4.503379999999999939e+00 2.407300000000000217e+00 8.531060000000000088e+00 2.539079999999999782e+00 6.087720000000000020e+00 8.465149999999999508e+00 4.399740000000000428e+00 6.809840000000000337e+00 2.227000000000000160e-02 6.278229999999999755e+00 3.157189999999999941e+00 7.953999999999999959e-02 2.865300000000000069e-01 6.840569999999999595e+00 8.699999999999999400e-03 2.228400000000000158e+00 3.160719999999999974e+00 1.735000000000000084e-02 2.409889999999999866e+00 1.157469999999999999e+00 7.205470000000000041e+00 3.856200000000000183e-01 4.786920000000000286e+00 7.179750000000000298e+00 6.483810000000000073e+00 1.123729999999999896e+00 7.244740000000000180e+00 4.551280000000000214e+00 4.800209999999999866e+00 7.147660000000000124e+00 3.277399999999999758e-01 2.465019999999999989e+00 3.279370000000000118e+00 -1.632030000000000092e+00 6.204909999999999926e+00 3.330499999999999794e+00 4.351689999999999614e+00 2.520280000000000076e+00 3.236580000000000013e+00 2.425860000000000127e+00 6.187969999999999970e+00 3.282869999999999955e+00
2.186910000000000132e+00 1.266960000000000086e+00 1.995440000000000103e+00 3.316399999999999904e-01 4.956059999999999910e+00 1.946600000000000108e+00 6.275190000000000268e+00 1.262979999999999992e+00 1.977780000000000094e+00 4.394560000000000244e+00 4.933329999999999771e+00 1.991020000000000012e+00 4.452200000000000046e-01 2.459639999999999826e+00 8.474130000000000607e+00 -1.536219999999999919e+00 6.122130000000000294e+00 8.492990000000000705e+00 4.498999999999999666e+00 2.405199999999999783e+00 8.536149999999999238e+00 2.530689999999999884e+00 6.084749999999999659e+00 8.458220000000000738e+00 4.411699999999999733e+00 6.801890000000000214e+00 2.318999999999999881e-02 6.279219999999999580e+00 3.156429999999999847e+00 9.042999999999999650e-02 2.888800000000000257e-01 6.839140000000000441e+00 5.950000000000000427e-03 2.232019999999999893e+00 3.159409999999999830e+00 1.883999999999999911e-02 2.412049999999999805e+00 1.162989999999999968e+00 7.206590000000000273e+00 3.689799999999999747e-01 4.782449999999999868e+00 7.175589999999999691e+00 6.485940000000000261e+00 1.123469999999999969e+00 7.254590000000000316e+00 4.553880000000000372e+00 4.797860000000000014e+00 7.136890000000000178e+00 3.408999999999999808e-01 2.458450000000000024e+00 3.279900000000000038e+00 -1.623280000000000056e+00 6.210320000000000285e+00 3.340850000000000097e+00 4.356709999999999638e+00 2.523379999999999956e+00 3.229709999999999859e+00 2.432809999999999917e+00 6.188760000000000261e+00 3.283240000000000158e+00
2.176779999999999937e+00 1.267879999999999896e+00 1.997719999999999940e+00 3.374599999999999822e-01 4.957290000000000418e+00 1.942390000000000061e+00 6.268849999999999589e+00 1.263570000000000082e+00 1.978420000000000067e+00 4.398240000000000371e+00 4.931129999999999569e+00 1.993149999999999977e+00 4.446899999999999742e-01 2.467220000000000191e+00 8.469229999999999592e+00 -1.545239999999999947e+00 6.126149999999999984e+00 8.491220000000000212e+00 4.494640000000000413e+00 2.403129999999999988e+00 8.541180000000000661e+00 2.522250000000000103e+00 6.081669999999999909e+00 8.451069999999999638e+00 4.423729999999999940e+00 6.793859999999999566e+00 2.432000000000000134e-02 6.280319999999999681e+00 3.155689999999999884e+00 1.014100000000000001e-01 2.912899999999999934e-01 6.837699999999999889e+00 3.220000000000000206e-03 2.235570000000000057e+00 3.158110000000000195e+00 2.050000000000000086e-02 2.414229999999999876e+00 1.168449999999999989e+00 7.207790000000000141e+00 3.521599999999999731e-01 4.777949999999999697e+00 7.171420000000000350e+00 6.488059999999999938e+00 1.123159999999999936e+00 7.264639999999999986e+00 4.556379999999999875e+00 4.795399999999999885e+00 7.126179999999999737e+00 3.538899999999999824e-01 2.452059999999999906e+00 3.280460000000000154e+00 -1.614430000000000032e+00 6.215830000000000410e+00 3.351150000000000073e+00 4.361620000000000275e+00 2.526580000000000048e+00 3.222799999999999887e+00 2.439779999999999838e+00 6.189669999999999561e+00 3.283479999999999954e+00
2.167050000000000143e+00 1.268610000000000015e+00 1.999859999999999971e+00 3.431799999999999851e-01 4.958459999999999646e+00 1.938360000000000083e+00 6.262780000000000236e+00 1.264040000000000052e+00 1.979079999999999950e+00 4.401989999999999625e+00 4.929009999999999891e+00 1.995249999999999968e+00 4.441599999999999993e-01 2.474629999999999885e+00 8.464510000000000645e+00 -1.554049999999999931e+00 6.130090000000000039e+00 8.489330000000000709e+00 4.490450000000000053e+00 2.401180000000000092e+00 8.545989999999999753e+00 2.514060000000000183e+00 6.078579999999999650e+00 8.443939999999999557e+00 4.435430000000000206e+00 6.786039999999999850e+00 2.563000000000000000e-02 6.281520000000000437e+00 3.155009999999999870e+00 1.120700000000000029e-01 2.936900000000000066e-01 6.836299999999999599e+00 6.099999999999999737e-04 2.238939999999999930e+00 3.156880000000000130e+00 2.227000000000000160e-02 2.416360000000000063e+00 1.173669999999999991e+00 7.208999999999999631e+00 3.357499999999999929e-01 4.773609999999999687e+00 7.167379999999999640e+00 6.490070000000000228e+00 1.122819999999999929e+00 7.274519999999999875e+00 4.558670000000000222e+00 4.792919999999999625e+00 7.115910000000000402e+00 3.662000000000000255e-01 2.446120000000000072e+00 3.281050000000000022e+00 -1.605790000000000051e+00 6.221230000000000260e+00 3.361009999999999831e+00 4.366229999999999833e+00 2.529770000000000074e+00 3.216099999999999959e+00 2.446509999999999962e+00 6.190649999999999764e+00 3.283570000000000100e+00