-7.210196335000000545e+01
-7.209852877999999521e+01
-7.208178838000000610e+01
-7.205186165000000642e+01
-7.200982743000000141e+01
-7.195429722999999456e+01
-7.188276288999999508e+01
-7.179646757999999807e+01
-7.169897487000000069e+01
-7.158909629999999424e+01
-7.203052116000000638e+01
-7.201941211999999837e+01
-7.199948550999999952e+01
-7.197114073000000189e+01
-7.193535556000000497e+01
-7.189119784000000379e+01
-7.183693882000000031e+01
-7.177369102999999484e+01
-7.170440892000000588e+01
-7.162899405999999658e+01
-7.193682470000000251e+01
-7.193477251999999567e+01
-7.192258298000000138e+01
-7.190018505999999832e+01
-7.186821874000000321e+01
-7.182531369999999526e+01
-7.176946809000000371e+01
-7.170198152999999763e+01
-7.162549088999999469e+01
-7.153844445000000007e+01
-7.163265189999999905e+01
-7.163985669999999573e+01
-7.163701939000000607e+01
-7.162374185000000182e+01
-7.160062127999999859e+01
-7.156659720999999763e+01
-7.151998675000000105e+01
-7.146210182999999461e+01
-7.139533285999999634e+01
-7.131814500999999495e+01
-7.165829021000000409e+01
-7.164533138999999551e+01
-7.162290771000000689e+01
-7.159166770000000213e+01
-7.155302944999999681e+01
-7.150649230999999872e+01
-7.145030534999999361e+01
-7.138501949999999852e+01
-7.131361250999999868e+01
-7.123681186000000309e+01
