-1.635108514584870942e-02 5.256261872199967378e-02 7.107955588380455991e-02 -1.635861369960833062e-02 5.261675028546063809e-02 7.104184521269464592e-02 -1.635014562898619295e-02 5.255561588997518380e-02 7.107851778376031437e-02 -1.635964685111555503e-02 5.260275100825501093e-02 7.104383338665160030e-02 4.451726861534061747e-02 -4.712487750144057214e-02 -1.673603063763420828e-02 4.451088515447185201e-02 -4.709978565251195237e-02 -1.675983506043084159e-02 4.452440734950344203e-02 -4.714294261195528524e-02 -1.672522831118831987e-02 4.451438217716076340e-02 -4.715189051202829662e-02 -1.672403206548494711e-02 2.936240808167653576e-03 -9.075645091654996333e-02 -4.915824021411170641e-02 2.932377683412686585e-03 -9.075944648887201982e-02 -4.915116188001455999e-02 2.931399483977097011e-03 -9.076344594505568464e-02 -4.914915004600072662e-02 2.933301363022494147e-03 -9.075744202672483829e-02 -4.915517796610414242e-02 -3.402911769890990673e-02 3.689328467642759291e-02 3.209513346356699937e-01 -3.404115755617332512e-02 3.690536219579067939e-02 3.209466255632442144e-01 -3.403627863002432058e-02 3.690334744504075726e-02 3.209415131412107214e-01 -3.402511299550625007e-02 3.689826530245025882e-02 3.209502595937773206e-01 2.080967024262146085e-03 4.881714956916088921e-02 -3.261662463226170927e-01 2.088894002962024717e-03 4.881211108967326018e-02 -3.261684318964878093e-01 2.082015364653310580e-03 4.881013431171656036e-02 -3.261622856225004363e-01 2.073892287478950290e-03 4.881119274346715220e-02 -3.261681075929098728e-01
-2.539861910148586907e-02 1.004936365796956083e-01 8.526298896195058652e-02 7.041636327161105054e-03 1.228460770036583771e-02 1.090094278926557747e-01 -1.258362718870584219e-03 1.150990667346632745e-01 5.448349301464885941e-02 2.074612968251393543e-03 3.996333890370377950e-02 7.606741263970846767e-02 3.646394799660495484e-02 -3.575887499109729750e-02 4.474124555566112715e-02 7.924345342976275158e-03 -2.438361821792936479e-02 1.122718752559496297e-01 -4.782498637025261144e-03 -7.418356442255447103e-02 8.221346588212641304e-02 8.726700459523990816e-02 -1.044063507411371189e-01 2.448507641182764982e-02 9.506268471643394488e-03 -1.120792014053279689e-01 -6.975616658825919969e-02 3.033409393813460073e-02 -1.076484132071707372e-01 -9.264796049525678145e-02 6.979389782140923981e-03 -7.101536105116437736e-02 -4.237655250302593823e-02 1.712298768649319139e-02 -6.101992629712207211e-02 -9.689756872275999411e-02 -4.429620338107306127e-02 1.059371342992485171e-01 2.764907053708779427e-01 4.203032983852999366e-02 -3.596829568641974478e-02 2.589539786276292554e-01 1.927311008567381091e-03 7.178285383657216634e-02 2.450712482694646643e-01 -1.311586322104834612e-01 6.483213945859801763e-02 2.742025421324463808e-01 6.369263058372134391e-03 5.816105070903208885e-02 -3.529197794379265174e-01 -2.311531351476133964e-02 -4.666361971156434514e-04 -3.116428458873616858e-01 -1.141431584107679455e-02 8.562957802204694546e-02 -3.462888722766677696e-01 -1.624133099744222083e-02 -2.630000877492847527e-02 -3.310273058387633860e-01
-3.381897705834938789e-02 1.511026398345213795e-01 9.717088071416118966e-02 2.930356350792868644e-02 -3.090836655038838726e-02 1.474147814804323553e-01 1.416059073029114768e-02 1.817973250773974592e-01 3.428280729275629685e-02 2.088018559346747904e-02 2.708884772645944045e-02 7.941492399061429730e-02 2.923878979071893591e-02 -2.447409749362297951e-02 1.069254648268913865e-01 -2.968361024771926440e-02 3.381244906781260152e-03 2.501824934693510083e-01 -5.471311658966129809e-02 -1.031569796652217347e-01 1.858800663664481323e-01 1.286760455928854796e-01 -1.633822697582885952e-01 7.153155034114293265e-02 1.421788603621855843e-02 -1.332750809168839201e-01 -8.978619366728463058e-02 5.671047633853940062e-02 -1.244354134445967847e-01 -1.354390202870953408e-01 1.099034575986729267e-02 -4.995383524455351831e-02 -3.611700803553042488e-02 3.144708428655953319e-02 -2.992216637282286984e-02 -1.454677032005081416e-01 -5.493798715343252426e-02 1.783014769346856765e-01 2.293358364853583520e-01 1.251272392439635728e-01 -1.136262486926823134e-01 1.912991773328170664e-01 3.925162668655379078e-02 1.089870350064937182e-01 1.645050177348786058e-01 -2.316689407241974696e-01 9.022822451439785341e-02 2.195511162501973257e-01 1.056359336820253750e-02 6.806138858686833215e-02 -3.792127741015307030e-01 -4.823808858730036647e-02 -5.268477244789709912e-02 -2.942056381624204020e-01 -2.519553796321218411e-02 1.225616807396016084e-01 -3.656087848083361957e-01 -3.338825728948591892e-02 -1.047788746444704155e-01 -3.324274705983388256e-01
-4.114726046822000244e-02 2.028859198056465196e-01 1.064342873635054088e-01 4.987098677047753503e-02 -7.404370420252941176e-02 1.848379229825611036e-01 2.948131479017350107e-02 2.500402790331577862e-01 1.106937524268252794e-02 3.847676466679760682e-02 1.514859973478049036e-02 8.167080844984506149e-02 2.304695715271565595e-02 -1.337808089248197253e-02 1.657619216335135814e-01 -6.580007671304133332e-02 3.509596259321138417e-02 3.910601775752854392e-01 -1.039541019115732545e-01 -1.331967111556276173e-01 2.889158559288197425e-01 1.665887070916445001e-01 -2.221301923142476875e-01 1.212073194983273872e-01 1.716557846961687048e-02 -1.539521360712459430e-01 -1.081771467820445143e-01 8.173441337437377385e-02 -1.406696311645020403e-01 -1.762607982150028452e-01 1.527789939183847763e-02 -2.791342131436531926e-02 -3.044519204570070997e-02 4.519675975937696710e-02 2.712326142283171503e-03 -1.934243694397142221e-01 -6.555182322231634107e-02 2.519282019634551673e-01 1.815413429544101842e-01 2.136620624982455141e-01 -1.943749000553469108e-01 1.205846065734335060e-01 7.699411916867537897e-02 1.480369459376227881e-01 8.182776592881636779e-02 -3.340206254637001493e-01 1.118139594292259370e-01 1.591519190195265776e-01 1.388660267224096564e-02 7.715538497514644323e-02 -4.029211883291325402e-01 -7.291203885684606478e-02 -1.075800363349136146e-01 -2.731279782829222347e-01 -3.903263681229409560e-02 1.588186445522050128e-01 -3.830547092845615342e-01 -4.899084938422471058e-02 -1.852720307640956798e-01 -3.296992623485230367e-01
-4.780913129666457956e-02 2.554889858126954127e-01 1.129785744911778050e-01 6.845525245695964489e-02 -1.171992823744282403e-01 2.206287853227066054e-01 4.422978130258169160e-02 3.186521554659980104e-01 -1.458327030536165844e-02 5.554826425287167496e-02 4.021420560649865451e-03 8.216471883459178227e-02 1.835109118041191797e-02 -3.073095071195221240e-03 2.219762241528844549e-01 -9.995454143116912216e-02 6.946905056720172056e-02 5.318937549873812287e-01 -1.518516872222290537e-01 -1.640673402457009933e-01 3.900498855716582614e-01 2.014382651434180604e-01 -2.801820372197140196e-01 1.728979694918965637e-01 1.812527253183413359e-02 -1.734040071115953430e-01 -1.245553040150781249e-01 1.044178452717031969e-01 -1.558065848707356760e-01 -2.138631363950620201e-01 1.925982318903482482e-02 -5.863632477960727986e-03 -2.548987275155606760e-02 5.828253968124318812e-02 3.469871912951434656e-02 -2.389566149870628597e-01 -7.587174718782264959e-02 3.246503660797381285e-01 1.345624003314416228e-01 3.049851404641214514e-01 -2.754435208926449552e-01 4.887331591311488282e-02 1.137259529295256699e-01 1.872888393303799581e-01 -1.838275018354710330e-04 -4.351852212651124430e-01 1.294360780745541784e-01 9.495812467668585111e-02 1.697343234938220383e-02 8.617619337243731525e-02 -4.247341892149927300e-01 -9.627882780252160211e-02 -1.627263983082823662e-01 -2.499748943545863911e-01 -5.233684373276425994e-02 1.931241496659435175e-01 -3.986006255839276147e-01 -6.266207522115284367e-02 -2.647082691522725240e-01 -3.233836023260713843e-01
-5.417708581747570501e-02 3.111852492663932379e-01 1.170895675213578097e-01 8.603955550438216471e-02 -1.619422775405567894e-01 2.563704548999077293e-01 5.892955034021860050e-02 3.905821310414285263e-01 -4.394349997253309964e-02 7.274856457311011659e-02 -7.302976170058064938e-03 8.118198145285436540e-02 1.509872914473616920e-02 7.092967217184275273e-03 2.781857628532953264e-01 -1.340943464173589561e-01 1.090430315853380128e-01 6.774270657750399716e-01 -2.009348085861200062e-01 -1.970681806784208567e-01 4.935880012526202010e-01 2.345740170999826013e-01 -3.396007527252970504e-01 2.280813613559616038e-01 1.733514746359681585e-02 -1.925405059070970926e-01 -1.395602636729182389e-01 1.262598218486457313e-01 -1.705356817629905541e-01 -2.502928655862572960e-01 2.327102151114987527e-02 1.737469047772436867e-02 -2.081930533497393376e-02 7.092642801326043411e-02 6.843027587019361035e-02 -2.843638760366882234e-01 -8.639978123467603743e-02 3.995030421570282542e-01 8.617594385836366278e-02 4.031099075059356163e-01 -3.606677707101161312e-01 -2.698933477415033783e-02 1.512286610470388037e-01 2.286899245263190605e-01 -8.531860737298953279e-02 -5.402018126353189675e-01 1.435386057547070326e-01 2.429586920672874642e-02 1.958620991195405767e-02 9.499112829320804918e-02 -4.446559302841559536e-01 -1.195601604295432052e-01 -2.211781351397427708e-01 -2.230829872562396510e-01 -6.577935812715662856e-02 2.274708842946485954e-01 -4.126540710856853589e-01 -7.505967357586640354e-02 -3.471855626467057476e-01 -3.132633066660931997e-01
-6.005557480871651088e-02 3.721682433680465474e-01 1.181043024776706751e-01 1.031466581663195992e-01 -2.095866041738321528e-01 2.933385948507318819e-01 7.432832400001318507e-02 4.682410530129152981e-01 -7.781979001966848886e-02 9.022514014937343951e-02 -1.881800980404007076e-02 7.855736327704089528e-02 1.305906570337327099e-02 1.692279199383332419e-02 3.346351294994123204e-01 -1.689396436457675510e-01 1.559925596334089393e-01 8.320312369670134212e-01 -2.517167404867883818e-01 -2.328065909979490922e-01 6.008691861392299050e-01 2.668570385305044645e-01 -4.023584294166085429e-01 2.881621902507836563e-01 1.478854216192419108e-02 -2.118600672959040365e-01 -1.534191739878037197e-01 1.476877446390039428e-01 -1.853065119863845367e-01 -2.862965845148773281e-01 2.734441742930436223e-02 4.241864318171559289e-02 -1.654569974568161420e-02 8.351027302273912600e-02 1.042566590600003118e-01 -3.303877724043588482e-01 -9.716061297168987476e-02 4.778088973919459859e-01 3.574464494240008755e-02 5.105714329543549201e-01 -4.516810589520249830e-01 -1.085039398174740682e-01 1.901104913355451675e-01 2.732273835494440917e-01 -1.750587143785838073e-01 -6.516967120303862604e-01 1.540078869862360755e-01 -5.448936597923064590e-02 2.174058039154794231e-02 1.036034263519167165e-01 -4.636679795180831953e-01 -1.432753128977311829e-01 -2.844775342656851169e-01 -1.919816749514734189e-01 -7.961972764491528909e-02 2.623159093321910662e-01 -4.259024258747244884e-01 -8.660975990816709158e-02 -4.345604823721155863e-01 -2.989666257112387204e-01
-6.522946938663298777e-02 4.358704088455414571e-01 1.161627500809053470e-01 1.190680424899567269e-01 -2.585177187624181361e-01 3.304253723210207050e-01 8.950339368931758965e-02 5.489878915207244692e-01 -1.153444129757672520e-01 1.067863207571154160e-01 -3.024355066180918830e-02 7.489264121744564073e-02 1.195487032685940872e-02 2.622610552780415411e-02 3.887012556325390444e-01 -2.034616427777680703e-01 2.098250533067660129e-01 9.914456306948882247e-01 -3.029221324073025357e-01 -2.698491908731296407e-01 7.087814979222651912e-01 2.977347931011913862e-01 -4.667966319160599675e-01 3.508710587991166752e-01 1.022118878805315829e-02 -2.308388759238097776e-01 -1.658589159526582257e-01 1.680415390654634022e-01 -1.995174819850756287e-01 -3.210102244584202569e-01 3.135772639147423740e-02 6.825106604222272444e-02 -1.274794115367624756e-02 9.575007521779617392e-02 1.414191123192490018e-01 -3.760547748874119023e-01 -1.081150035761294093e-01 5.579911233749308419e-01 -1.522490747151820749e-02 6.254367158560757423e-01 -5.467092540616400598e-01 -1.933364589738092998e-01 2.294100498729648996e-01 3.197144695055517682e-01 -2.668645638335434001e-01 -7.677497336680435547e-01 1.599775289910470022e-01 -1.393580368495718758e-01 2.365250673817908059e-02 1.122581043491082398e-01 -4.810092457759467255e-01 -1.668165492702010921e-01 -3.512008053987472067e-01 -1.571377583868811267e-01 -9.350191480051432691e-02 2.968714903338699473e-01 -4.376002177382734559e-01 -9.688544887721481369e-02 -5.247589557263594440e-01 -2.806547348787141183e-01
-6.952096014718461836e-02 5.008650114549166865e-01 1.111514676397921259e-01 1.331019102919275277e-01 -3.065041651184661764e-01 3.661262460145019992e-01 1.040442769758626873e-01 6.301392445857336710e-01 -1.549917371426323409e-01 1.227289932355169477e-01 -4.090147075687004113e-02 6.987196301322397274e-02 1.145097059014275366e-02 3.467181675737161795e-02 4.390853017151529758e-01 -2.349182519125303237e-01 2.684267796507400772e-01 1.150017957015321501e+00 -3.521186053863996079e-01 -3.070398170709487395e-01 8.133059053270025318e-01 3.255159712486211943e-01 -5.292031235931462518e-01 4.137244070130789431e-01 4.179596642999375798e-03 -2.487811811268829665e-01 -1.763475275557184196e-01 1.867416119393608132e-01 -2.127886032299377006e-01 -3.530799015941594177e-01 3.500673542730581289e-02 9.420489107878361745e-02 -9.541093782010671986e-03 1.069554757031827008e-01 1.782640964682139784e-01 -4.191234293337431360e-01 -1.186028808305452237e-01 6.357594476007271123e-01 -6.437917650229534050e-02 7.421286211937959676e-01 -6.408667122978490838e-01 -2.776444443790316297e-01 2.672354282062130437e-01 3.660901134110279287e-01 -3.567511445589804930e-01 -8.836331987744925343e-01 1.612354391395158237e-01 -2.268827444277012606e-01 2.502376675478451898e-02 1.201089756982608447e-01 -4.963372589954503367e-01 -1.893698586109505144e-01 -4.188085721930588923e-01 -1.201590295411875814e-01 -1.067115579343411169e-01 3.295397951018387839e-01 -4.477989776188237570e-01 -1.058698350585751541e-01 -6.138574574652955196e-01 -2.594045102786629031e-01
-7.307289164188766895e-02 5.683727985161627361e-01 1.030956037471937314e-01 1.461461323966793124e-01 -3.553440203075571291e-01 4.013334198047238122e-01 1.182344702459374730e-01 7.130122660794968592e-01 -1.978979322374116168e-01 1.383970367630608933e-01 -5.154777182556675996e-02 6.353697550264152116e-02 1.195652073633162935e-02 4.299649086633677841e-02 4.862943147221265860e-01 -2.643217508726864451e-01 3.323167759215046591e-01 1.310510200510752954e+00 -4.006105517083932144e-01 -3.447148230372517608e-01 9.167735216514998342e-01 3.522128725137671501e-01 -5.929875823295570614e-01 4.773811226300715971e-01 -3.581505507087298385e-03 -2.662404285136603654e-01 -1.853991692434601712e-01 2.043374009245953749e-01 -2.252260588877661729e-01 -3.837051259629790656e-01 3.839027894463033219e-02 1.205652263405319613e-01 -6.775564331461055197e-03 1.176751741204072332e-01 2.159583966361807161e-01 -4.611911618299530113e-01 -1.290944337648925744e-01 7.136816553530958007e-01 -1.130518675979600568e-01 8.637923280441038854e-01 -7.370135260228360963e-01 -3.632208876985645318e-01 3.047819009583309646e-01 4.135514766476624526e-01 -4.471310753232926039e-01 -1.003074887440395191e+00 1.574789203330681786e-01 -3.186794946873259260e-01 2.618012836356215650e-02 1.277243045382122633e-01 -5.096707017370111226e-01 -2.116551679573702993e-01 -4.890789448957885699e-01 -7.976293032831474616e-02 -1.198682943442411497e-01 3.616659051904311806e-01 -4.563518414543633051e-01 -1.137124688435346004e-01 -7.044545844668615997e-01 -2.346360154646542351e-01
7.929400000000000337e-02 -3.747999999999999943e-02 -1.632099999999999870e-02 1.658350000000000102e-01 -1.111219999999999986e-01 4.833300000000000096e-02 1.088739999999999986e-01 -7.938800000000000023e-02 5.477400000000000324e-02 8.474099999999999688e-02 -4.599099999999999716e-02 3.913999999999999944e-03 7.967799999999999883e-02 9.460999999999999965e-02 -1.574149999999999994e-01 4.383200000000000290e-02 1.264440000000000008e-01 -1.787729999999999875e-01 3.904699999999999838e-02 8.895400000000000529e-02 -1.949799999999999867e-01 7.365099999999999425e-02 7.507300000000000084e-02 -1.623499999999999943e-01 -5.950400000000000134e-02 -2.142900000000000013e-02 1.775529999999999886e-01 -5.045899999999999691e-02 -8.400000000000000348e-04 1.214469999999999994e-01 -7.320100000000000218e-02 2.601000000000000013e-03 1.432809999999999917e-01 -8.427500000000000269e-02 -4.151699999999999835e-02 2.198740000000000139e-01 4.690199999999999925e-02 -1.991390000000000104e-01 1.865529999999999966e-01 1.752099999999999838e-02 -1.742319999999999980e-01 1.812390000000000112e-01 6.533999999999999878e-03 -1.618050000000000044e-01 1.895239999999999980e-01 1.633499999999999883e-02 -1.812940000000000107e-01 1.770599999999999952e-01 -1.219439999999999968e-01 1.763619999999999910e-01 -2.185010000000000008e-01 -1.408510000000000040e-01 1.907719999999999971e-01 -1.819749999999999979e-01 -9.501800000000000523e-02 1.389309999999999989e-01 -1.746070000000000122e-01 -1.375020000000000131e-01 1.607679999999999942e-01 -2.204290000000000138e-01
1.491929999999999923e-01 -9.220599999999999630e-02 -3.905299999999999744e-02 1.379430000000000101e-01 -1.148079999999999934e-01 8.984399999999999331e-02 1.603179999999999883e-01 -1.056239999999999957e-01 6.173599999999999921e-02 1.332510000000000083e-01 -2.120899999999999869e-02 9.058999999999999345e-03 5.687099999999999794e-02 7.220799999999999441e-02 -1.009469999999999951e-01 6.255700000000000149e-02 1.093999999999999972e-01 -2.126550000000000107e-01 7.464500000000000302e-02 1.149180000000000063e-01 -2.331850000000000034e-01 1.102250000000000035e-01 3.374400000000000316e-02 -1.889750000000000041e-01 -8.728600000000000247e-02 -2.460000000000000164e-04 2.072130000000000083e-01 -7.749999999999999944e-03 8.477999999999999425e-03 6.974299999999999944e-02 -5.371499999999999886e-02 6.013000000000000116e-03 1.456439999999999957e-01 -1.098399999999999932e-01 -2.420900000000000135e-02 2.311779999999999946e-01 3.753599999999999992e-02 -2.173799999999999899e-01 1.739600000000000035e-01 4.978699999999999792e-02 -1.310540000000000038e-01 1.762080000000000035e-01 -1.492100000000000024e-02 -1.523859999999999937e-01 1.669970000000000065e-01 -4.138599999999999918e-02 -1.762569999999999970e-01 2.336600000000000066e-01 -2.225169999999999926e-01 2.350129999999999997e-01 -1.964660000000000017e-01 -1.379350000000000021e-01 1.557659999999999878e-01 -2.345460000000000045e-01 -1.416219999999999979e-01 1.318630000000000080e-01 -1.280159999999999909e-01 -1.540439999999999865e-01 1.677250000000000130e-01 -2.329680000000000084e-01
2.281400000000000095e-01 -1.540030000000000010e-01 -6.911799999999999888e-02 1.095639999999999947e-01 -1.176699999999999968e-01 1.315119999999999900e-01 2.134250000000000036e-01 -1.355270000000000086e-01 6.668300000000000616e-02 1.811689999999999967e-01 3.667000000000000121e-03 1.341499999999999984e-02 3.475500000000000117e-02 4.852900000000000269e-02 -4.262400000000000216e-02 8.199199999999999544e-02 9.139400000000000301e-02 -2.497119999999999895e-01 1.114789999999999948e-01 1.398850000000000093e-01 -2.711600000000000121e-01 1.449400000000000133e-01 -7.648000000000000284e-03 -2.146990000000000010e-01 -1.170630000000000004e-01 2.264499999999999846e-02 2.402340000000000031e-01 3.582500000000000268e-02 1.939400000000000152e-02 1.608700000000000060e-02 -3.416799999999999699e-02 9.603999999999999690e-03 1.474459999999999937e-01 -1.363689999999999902e-01 -6.311999999999999902e-03 2.431599999999999873e-01 2.740099999999999827e-02 -2.357579999999999953e-01 1.605540000000000023e-01 8.192499999999999782e-02 -8.526100000000000345e-02 1.696580000000000032e-01 -3.700200000000000017e-02 -1.424259999999999970e-01 1.437309999999999977e-01 -9.853599999999999859e-02 -1.706259999999999999e-01 2.901480000000000170e-01 -3.308760000000000034e-01 2.994450000000000167e-01 -1.662520000000000109e-01 -1.338519999999999988e-01 1.211450000000000027e-01 -2.876750000000000140e-01 -1.905300000000000049e-01 1.251829999999999887e-01 -7.768100000000000005e-02 -1.704759999999999887e-01 1.748119999999999952e-01 -2.456059999999999910e-01
3.119299999999999851e-01 -2.198670000000000069e-01 -1.049569999999999947e-01 8.222899999999999654e-02 -1.198260000000000020e-01 1.715230000000000088e-01 2.653349999999999875e-01 -1.680609999999999882e-01 6.989399999999999780e-02 2.262129999999999974e-01 2.766599999999999962e-02 1.716900000000000023e-02 1.460799999999999946e-02 2.297700000000000090e-02 1.568299999999999902e-02 1.030060000000000003e-01 7.320400000000000518e-02 -2.883589999999999764e-01 1.485080000000000011e-01 1.630479999999999985e-01 -3.079549999999999788e-01 1.765889999999999960e-01 -4.768800000000000122e-02 -2.381050000000000111e-01 -1.488829999999999876e-01 4.705800000000000261e-02 2.750619999999999732e-01 7.867799999999999794e-02 3.185199999999999837e-02 -3.863699999999999773e-02 -1.577599999999999836e-02 1.330500000000000085e-02 1.485980000000000079e-01 -1.629019999999999913e-01 1.165000000000000063e-02 2.550850000000000062e-01 1.671500000000000069e-02 -2.538520000000000221e-01 1.464229999999999976e-01 1.138850000000000001e-01 -3.836300000000000127e-02 1.612919999999999909e-01 -5.896099999999999952e-02 -1.321170000000000122e-01 1.196649999999999936e-01 -1.529939999999999911e-01 -1.644009999999999916e-01 3.443990000000000107e-01 -4.444040000000000212e-01 3.682920000000000083e-01 -1.283410000000000106e-01 -1.293920000000000070e-01 8.783299999999999441e-02 -3.392809999999999993e-01 -2.404080000000000106e-01 1.186070000000000041e-01 -2.477800000000000141e-02 -1.865809999999999969e-01 1.813619999999999954e-01 -2.571430000000000105e-01
4.023649999999999727e-01 -2.902379999999999960e-01 -1.465670000000000028e-01 5.516800000000000176e-02 -1.214969999999999939e-01 2.103220000000000089e-01 3.170370000000000132e-01 -2.025720000000000021e-01 7.099999999999999367e-02 2.691479999999999984e-01 5.104600000000000110e-02 1.975199999999999873e-02 -4.035000000000000392e-03 -5.024999999999999953e-03 7.439500000000000279e-02 1.259089999999999931e-01 5.391499999999999765e-02 -3.278969999999999940e-01 1.858339999999999992e-01 1.845390000000000086e-01 -3.439999999999999725e-01 2.066350000000000131e-01 -8.580000000000000127e-02 -2.584469999999999823e-01 -1.813569999999999904e-01 7.207700000000000218e-02 3.111119999999999997e-01 1.196900000000000047e-01 4.526499999999999968e-02 -9.216199999999999393e-02 1.451999999999999949e-03 1.710899999999999921e-02 1.492739999999999900e-01 -1.887109999999999899e-01 2.913599999999999871e-02 2.668920000000000181e-01 5.714999999999999594e-03 -2.710369999999999724e-01 1.320489999999999997e-01 1.445980000000000043e-01 8.628000000000000252e-03 1.515320000000000000e-01 -8.025000000000000189e-02 -1.218079999999999996e-01 9.558600000000000430e-02 -2.038159999999999972e-01 -1.579349999999999921e-01 3.953650000000000220e-01 -5.600119999999999543e-01 4.397960000000000202e-01 -8.378099999999999437e-02 -1.243989999999999957e-01 5.668499999999999928e-02 -3.881689999999999863e-01 -2.897890000000000188e-01 1.125609999999999944e-01 2.902199999999999919e-02 -2.016779999999999962e-01 1.874760000000000038e-01 -2.676529999999999743e-01
4.999219999999999775e-01 -3.660990000000000077e-01 -1.947810000000000097e-01 2.825199999999999934e-02 -1.228459999999999969e-01 2.483009999999999939e-01 3.693110000000000004e-01 -2.400720000000000076e-01 7.070700000000000596e-02 3.101869999999999905e-01 7.449400000000000466e-02 2.180899999999999853e-02 -2.091499999999999956e-02 -3.554199999999999721e-02 1.344130000000000047e-01 1.496290000000000120e-01 3.402999999999999775e-02 -3.690479999999999872e-01 2.234740000000000060e-01 2.047339999999999993e-01 -3.787929999999999908e-01 2.341090000000000115e-01 -1.232800000000000007e-01 -2.772609999999999797e-01 -2.154399999999999926e-01 9.846000000000000585e-02 3.490480000000000249e-01 1.603249999999999953e-01 6.019700000000000051e-02 -1.466679999999999928e-01 1.817099999999999965e-02 2.098200000000000065e-02 1.492950000000000110e-01 -2.146009999999999862e-01 4.677300000000000207e-02 2.786279999999999868e-01 -6.080000000000000335e-03 -2.879260000000000153e-01 1.168450000000000044e-01 1.753230000000000066e-01 5.732000000000000289e-02 1.399430000000000118e-01 -1.015640000000000015e-01 -1.110629999999999951e-01 7.068599999999999883e-02 -2.528779999999999917e-01 -1.509679999999999911e-01 4.447369999999999934e-01 -6.813139999999999752e-01 5.162120000000000042e-01 -3.132599999999999968e-02 -1.189270000000000049e-01 2.648800000000000113e-02 -4.359850000000000114e-01 -3.402510000000000256e-01 1.065490000000000048e-01 8.571499999999999952e-02 -2.163910000000000000e-01 1.932659999999999934e-01 -2.773410000000000042e-01
6.066949999999999843e-01 -4.495709999999999984e-01 -2.510490000000000221e-01 9.990000000000001049e-04 -1.239780000000000049e-01 2.862750000000000017e-01 4.231699999999999906e-01 -2.809550000000000103e-01 6.896099999999999453e-02 3.503470000000000195e-01 9.838099999999999623e-02 2.332100000000000145e-02 -3.626999999999999669e-02 -6.916600000000000525e-02 1.965520000000000045e-01 1.745889999999999942e-01 1.343199999999999950e-02 -4.128080000000000083e-01 2.622160000000000046e-01 2.239629999999999954e-01 -4.132979999999999987e-01 2.593840000000000034e-01 -1.603390000000000093e-01 -2.952159999999999784e-01 -2.519339999999999913e-01 1.269000000000000128e-01 3.897729999999999806e-01 2.016999999999999904e-01 7.701299999999999812e-02 -2.037430000000000074e-01 3.479899999999999660e-02 2.504199999999999829e-02 1.486879999999999868e-01 -2.411880000000000135e-01 6.494800000000000573e-02 2.905309999999999837e-01 -1.911500000000000005e-02 -3.050019999999999953e-01 1.006409999999999944e-01 2.068099999999999938e-01 1.088889999999999997e-01 1.259830000000000116e-01 -1.234119999999999939e-01 -9.961100000000000509e-02 4.451399999999999801e-02 -3.014479999999999937e-01 -1.432869999999999977e-01 4.937489999999999934e-01 -8.116240000000000121e-01 5.999160000000000048e-01 3.053099999999999911e-02 -1.130140000000000033e-01 -3.530000000000000152e-03 -4.841050000000000075e-01 -3.931359999999999855e-01 1.001950000000000063e-01 1.464590000000000058e-01 -2.311610000000000054e-01 1.988449999999999940e-01 -2.866079999999999739e-01
7.204040000000000443e-01 -5.393980000000000441e-01 -3.148360000000000047e-01 -2.606100000000000083e-02 -1.249170000000000003e-01 3.235669999999999935e-01 4.774570000000000203e-01 -3.245839999999999836e-01 6.588299999999999712e-02 3.890970000000000262e-01 1.224230000000000040e-01 2.442700000000000080e-02 -5.005899999999999933e-02 -1.055620000000000031e-01 2.601609999999999756e-01 2.006300000000000028e-01 -7.919999999999999957e-03 -4.584610000000000074e-01 3.016820000000000057e-01 2.419360000000000122e-01 -4.467280000000000140e-01 2.835199999999999942e-01 -1.959599999999999953e-01 -3.109830000000000094e-01 -2.896159999999999846e-01 1.565560000000000007e-01 4.321479999999999766e-01 2.424860000000000071e-01 9.534600000000000020e-02 -2.617450000000000054e-01 5.081800000000000206e-02 2.927199999999999941e-02 1.475309999999999955e-01 -2.676549999999999763e-01 8.314900000000000069e-02 3.022059999999999746e-01 -3.314500000000000085e-02 -3.217149999999999732e-01 8.373600000000000487e-02 2.380190000000000083e-01 1.618020000000000014e-01 1.101759999999999962e-01 -1.451399999999999912e-01 -8.777799999999999492e-02 1.750900000000000026e-02 -3.481679999999999775e-01 -1.350639999999999896e-01 5.410949999999999926e-01 -9.474350000000000271e-01 6.889009999999999856e-01 1.005270000000000052e-01 -1.069910000000000028e-01 -3.254200000000000148e-02 -5.310399999999999565e-01 -4.469500000000000139e-01 9.360300000000000564e-02 2.098820000000000130e-01 -2.455029999999999990e-01 2.039940000000000087e-01 -2.950639999999999930e-01
8.360459999999999559e-01 -6.310109999999999886e-01 -3.828509999999999969e-01 -5.170999999999999902e-02 -1.259530000000000094e-01 3.585450000000000026e-01 5.299160000000000537e-01 -3.689009999999999789e-01 6.153299999999999742e-02 4.247639999999999749e-01 1.455789999999999862e-01 2.490200000000000052e-02 -6.168499999999999678e-02 -1.425490000000000090e-01 3.221010000000000262e-01 2.261610000000000009e-01 -2.875499999999999931e-02 -5.035410000000000164e-01 3.402609999999999801e-01 2.581249999999999933e-01 -4.775780000000000025e-01 3.054350000000000120e-01 -2.292569999999999886e-01 -3.243219999999999992e-01 -3.266319999999999779e-01 1.860789999999999944e-01 4.744110000000000271e-01 2.811899999999999955e-01 1.143050000000000038e-01 -3.179719999999999769e-01 6.593699999999999561e-02 3.340300000000000213e-02 1.459090000000000109e-01 -2.928470000000000240e-01 1.005869999999999959e-01 3.133400000000000074e-01 -4.755399999999999905e-02 -3.373050000000000215e-01 6.681700000000000139e-02 2.681359999999999855e-01 2.140249999999999930e-01 9.295200000000000684e-02 -1.659239999999999882e-01 -7.616199999999999359e-02 -8.987999999999999462e-03 -3.915370000000000239e-01 -1.266909999999999981e-01 5.850189999999999557e-01 -1.082702000000000053e+00 7.792639999999999567e-01 1.752460000000000129e-01 -1.011259999999999937e-01 -5.937599999999999822e-02 -5.748950000000000449e-01 -4.992500000000000271e-01 8.712000000000000299e-02 2.730299999999999949e-01 -2.587289999999999868e-01 2.086210000000000009e-01 -3.024120000000000141e-01