4.139067000081660730e+00 2.105128673185450328e-22 3.052029115605665078e-22 -4.139150569071483154e+00 7.169025999666708060e+00 -4.842480583198989219e-21 -1.395625528624212114e-04 1.715512983152268347e-04 2.920610699937083865e+01
4.139066914081660720e+00 2.414962699359890434e-21 3.052029115605665078e-22 -4.139150512070989940e+00 7.169025765666539485e+00 -4.842480583198989219e-21 -1.397595550678369777e-04 1.717812989593295694e-04 2.920610675336969209e+01
4.139066679081660816e+00 3.065035075388963891e-21 3.052029115605665078e-22 -4.139150386069627707e+00 7.169025123665907273e+00 -4.842480583198989219e-21 -1.402915601105576414e-04 1.724462990445591168e-04 2.920610558636645848e+01
4.139066294081660935e+00 1.577344523313848988e-21 1.999268806069167374e-21 -4.139150206067514937e+00 7.169024092664718850e+00 -4.842480583198989219e-21 -1.412345669972578301e-04 1.734382972802696982e-04 2.920610333936127034e+01
4.139065753081660581e+00 -9.422439167539155264e-22 3.052029115605665078e-22 -4.139149982064726174e+00 7.169022674662880235e+00 -4.842480583198989219e-21 -1.426625748101881328e-04 1.746692924379594184e-04 2.920609980135421679e+01
4.139065047081660786e+00 1.891593746744325486e-21 3.052029115605665078e-22 -4.139149721061322396e+00 7.169020864660300418e+00 -4.842480583198989219e-21 -1.446555826851585766e-04 1.760562833056464490e-04 2.920609475034533631e+01
4.139064166081660723e+00 6.580152344289657992e-23 3.052029115605665078e-22 -4.139149432057350531e+00 7.169018653656867635e+00 -4.842480583198989219e-21 -1.472995897513499285e-04 1.775192686049656410e-04 2.920608794733466596e+01
4.139063101081660534e+00 -8.898527733902001674e-23 1.999268806069167374e-21 -4.139149125052870914e+00 7.169016036652473112e+00 -4.842480583198989219e-21 -1.506785951503693992e-04 1.789762470712092377e-04 2.920607917032223355e+01
4.139061844081661334e+00 4.499260115804512768e-21 1.999268806069167374e-21 -4.139148808047973027e+00 7.169013014647021009e+00 -4.842480583198989219e-21 -1.548665980802217451e-04 1.803462175375958039e-04 2.920606822530810120e+01
4.139060395081661348e+00 3.140691266208302416e-21 1.999268806069167374e-21 -4.139148491042723421e+00 7.169009599640457253e+00 -4.842480583198989219e-21 -1.599095977629499683e-04 1.815541790798058924e-04 2.920605497029238151e+01
4.165898013999999705e+00 0.000000000000000000e+00 0.000000000000000000e+00 -4.304262636999999891e+00 7.316212014999999624e+00 0.000000000000000000e+00 -3.970690459999999811e-01 -3.778575089999999803e-01 2.847302934300000032e+01
4.165897969999999617e+00 0.000000000000000000e+00 0.000000000000000000e+00 -4.304263104000000340e+00 7.316212265999999964e+00 0.000000000000000000e+00 -3.970710809999999924e-01 -3.778586170000000077e-01 2.847302474700000019e+01
4.165897797000000402e+00 0.000000000000000000e+00 0.000000000000000000e+00 -4.304263970000000050e+00 7.316212590000000127e+00 0.000000000000000000e+00 -3.970753949999999977e-01 -3.778606059999999878e-01 2.847301531000000097e+01
4.165897484000000262e+00 0.000000000000000000e+00 0.000000000000000000e+00 -4.304265209999999620e+00 7.316212957000000294e+00 0.000000000000000000e+00 -3.970819480000000179e-01 -3.778634989999999916e-01 2.847300137399999898e+01
4.165897016999999813e+00 0.000000000000000000e+00 0.000000000000000000e+00 -4.304266804000000057e+00 7.316213336999999761e+00 0.000000000000000000e+00 -3.970907209999999798e-01 -3.778673180000000076e-01 2.847298323000000053e+01
4.165896373999999902e+00 0.000000000000000000e+00 0.000000000000000000e+00 -4.304268740000000371e+00 7.316213691999999824e+00 0.000000000000000000e+00 -3.971017359999999830e-01 -3.778720990000000168e-01 2.847296105799999921e+01
4.165895532999999595e+00 0.000000000000000000e+00 0.000000000000000000e+00 -4.304271015000000311e+00 7.316213989000000417e+00 0.000000000000000000e+00 -3.971150439999999726e-01 -3.778778919999999930e-01 2.847293499499999925e+01
4.165894471999999737e+00 0.000000000000000000e+00 0.000000000000000000e+00 -4.304273625000000436e+00 7.316214185999999842e+00 0.000000000000000000e+00 -3.971306729999999896e-01 -3.778847329999999727e-01 2.847290522000000124e+01
4.165893170999999562e+00 0.000000000000000000e+00 0.000000000000000000e+00 -4.304276551000000062e+00 7.316214236999999621e+00 0.000000000000000000e+00 -3.971485770000000026e-01 -3.778926160000000145e-01 2.847287203799999844e+01
4.165891617999999852e+00 0.000000000000000000e+00 0.000000000000000000e+00 -4.304279760000000010e+00 7.316214092000000058e+00 0.000000000000000000e+00 -3.971685990000000110e-01 -3.779014729999999878e-01 2.847283591600000108e+01
4.217369804999999694e+00 0.000000000000000000e+00 0.000000000000000000e+00 -4.420559535999999845e+00 7.133583846999999700e+00 0.000000000000000000e+00 6.286382109999999468e-01 -3.534871529999999984e-01 2.882907269900000102e+01
4.217369909000000305e+00 0.000000000000000000e+00 0.000000000000000000e+00 -4.420559970000000227e+00 7.133583627000000149e+00 0.000000000000000000e+00 6.286385319999999721e-01 -3.534869259999999791e-01 2.882907038700000157e+01
4.217370002000000007e+00 0.000000000000000000e+00 0.000000000000000000e+00 -4.420560672999999774e+00 7.133583031999999768e+00 0.000000000000000000e+00 6.286393369999999647e-01 -3.534864950000000117e-01 2.882906553799999827e+01
4.217370060000000365e+00 0.000000000000000000e+00 0.000000000000000000e+00 -4.420561604000000422e+00 7.133582042999999651e+00 0.000000000000000000e+00 6.286406079999999896e-01 -3.534859770000000068e-01 2.882905846199999900e+01
4.217370050999999620e+00 0.000000000000000000e+00 0.000000000000000000e+00 -4.420562717000000141e+00 7.133580625999999647e+00 0.000000000000000000e+00 6.286423309999999987e-01 -3.534854840000000165e-01 2.882904939799999866e+01
4.217369940000000206e+00 0.000000000000000000e+00 0.000000000000000000e+00 -4.420563969999999898e+00 7.133578727999999813e+00 0.000000000000000000e+00 6.286445019999999939e-01 -3.534851270000000101e-01 2.882903850199999951e+01
4.217369697999999723e+00 0.000000000000000000e+00 0.000000000000000000e+00 -4.420565329999999626e+00 7.133576303999999979e+00 0.000000000000000000e+00 6.286471139999999513e-01 -3.534850190000000114e-01 2.882902593400000057e+01
4.217369291999999881e+00 0.000000000000000000e+00 0.000000000000000000e+00 -4.420566760999999900e+00 7.133573304999999642e+00 0.000000000000000000e+00 6.286501549999999883e-01 -3.534852780000000139e-01 2.882901188299999973e+01
4.217368696000000305e+00 0.000000000000000000e+00 0.000000000000000000e+00 -4.420568219999999826e+00 7.133569697999999626e+00 0.000000000000000000e+00 6.286536019999999780e-01 -3.534860189999999847e-01 2.882899660500000039e+01
4.217367882999999651e+00 0.000000000000000000e+00 0.000000000000000000e+00 -4.420569655000000431e+00 7.133565469999999742e+00 0.000000000000000000e+00 6.286574099999999721e-01 -3.534873419999999822e-01 2.882898039199999829e+01
4.115684878999999796e+00 0.000000000000000000e+00 0.000000000000000000e+00 -4.034452089000000186e+00 7.208905857000000417e+00 0.000000000000000000e+00 -4.486109629999999737e-01 -3.436942089999999728e-01 2.916214681499999983e+01
4.115684647000000140e+00 0.000000000000000000e+00 0.000000000000000000e+00 -4.034451924999999939e+00 7.208905797999999976e+00 0.000000000000000000e+00 -4.486121129999999790e-01 -3.436954819999999966e-01 2.916214618700000116e+01
4.115684103999999621e+00 0.000000000000000000e+00 0.000000000000000000e+00 -4.034451615000000047e+00 7.208905533000000254e+00 0.000000000000000000e+00 -4.486146839999999858e-01 -3.436979789999999868e-01 2.916214456200000171e+01
4.115683274000000225e+00 0.000000000000000000e+00 0.000000000000000000e+00 -4.034451178000000304e+00 7.208905060000000198e+00 0.000000000000000000e+00 -4.486185970000000078e-01 -3.437014620000000131e-01 2.916214198799999835e+01
4.115682170999999556e+00 0.000000000000000000e+00 0.000000000000000000e+00 -4.034450631000000342e+00 7.208904366999999702e+00 0.000000000000000000e+00 -4.486237820000000265e-01 -3.437057009999999746e-01 2.916213848700000000e+01
4.115680805000000220e+00 0.000000000000000000e+00 0.000000000000000000e+00 -4.034449983000000017e+00 7.208903441000000356e+00 0.000000000000000000e+00 -4.486301859999999864e-01 -3.437104830000000111e-01 2.916213405399999914e+01
4.115679180999999964e+00 0.000000000000000000e+00 0.000000000000000000e+00 -4.034449243000000074e+00 7.208902262999999699e+00 0.000000000000000000e+00 -4.486377619999999955e-01 -3.437155980000000111e-01 2.916212867599999825e+01
4.115677300999999844e+00 0.000000000000000000e+00 0.000000000000000000e+00 -4.034448416000000037e+00 7.208900815999999878e+00 0.000000000000000000e+00 -4.486464530000000006e-01 -3.437208219999999814e-01 2.916212233599999948e+01
4.115675178000000045e+00 0.000000000000000000e+00 0.000000000000000000e+00 -4.034447508000000404e+00 7.208899086999999817e+00 0.000000000000000000e+00 -4.486561629999999967e-01 -3.437259049999999982e-01 2.916211504700000035e+01
4.115672827000000034e+00 0.000000000000000000e+00 0.000000000000000000e+00 -4.034446531999999586e+00 7.208897067999999742e+00 0.000000000000000000e+00 -4.486667480000000041e-01 -3.437305849999999774e-01 2.916210685600000119e+01
4.077890421000000210e+00 0.000000000000000000e+00 0.000000000000000000e+00 -4.277310889999999866e+00 7.203157253999999732e+00 0.000000000000000000e+00 -5.920326679999999842e-01 -6.152940310000000190e-01 2.986281134600000087e+01
4.077890187999999583e+00 0.000000000000000000e+00 0.000000000000000000e+00 -4.277311416999999949e+00 7.203157322000000029e+00 0.000000000000000000e+00 -5.920352070000000078e-01 -6.152965400000000029e-01 2.986281480599999938e+01
4.077889676999999935e+00 0.000000000000000000e+00 0.000000000000000000e+00 -4.277312453999999597e+00 7.203157298999999902e+00 0.000000000000000000e+00 -5.920400710000000011e-01 -6.153015020000000002e-01 2.986282106699999872e+01
4.077888910000000422e+00 0.000000000000000000e+00 0.000000000000000000e+00 -4.277313999000000422e+00 7.203157188999999683e+00 0.000000000000000000e+00 -5.920471440000000252e-01 -6.153086979999999873e-01 2.986282996799999978e+01
4.077887899000000260e+00 0.000000000000000000e+00 0.000000000000000000e+00 -4.277316046000000149e+00 7.203156984999999679e+00 0.000000000000000000e+00 -5.920563220000000237e-01 -6.153179159999999648e-01 2.986284133599999890e+01
4.077886653000000194e+00 0.000000000000000000e+00 0.000000000000000000e+00 -4.277318601000000164e+00 7.203156681000000283e+00 0.000000000000000000e+00 -5.920675439999999456e-01 -6.153289800000000254e-01 2.986285505300000054e+01
4.077885176999999750e+00 0.000000000000000000e+00 0.000000000000000000e+00 -4.277321674000000407e+00 7.203156268999999945e+00 0.000000000000000000e+00 -5.920807710000000057e-01 -6.153417310000000029e-01 2.986287103100000095e+01
4.077883474000000064e+00 0.000000000000000000e+00 0.000000000000000000e+00 -4.277325268000000236e+00 7.203155736000000253e+00 0.000000000000000000e+00 -5.920959489999999548e-01 -6.153559849999999942e-01 2.986288916000000171e+01
4.077881553000000103e+00 0.000000000000000000e+00 0.000000000000000000e+00 -4.277329370000000353e+00 7.203155071000000298e+00 0.000000000000000000e+00 -5.921129579999999670e-01 -6.153714860000000231e-01 2.986290925400000162e+01
4.077879431999999582e+00 0.000000000000000000e+00 0.000000000000000000e+00 -4.277333944000000443e+00 7.203154260999999892e+00 0.000000000000000000e+00 -5.921315820000000452e-01 -6.153878999999999877e-01 2.986293101000000050e+01
