2.069529770315629236e+00 1.194836002980117717e+00 1.366551500039363765e+00 -5.101420199185810488e-05 4.779344002794762680e+00 1.366556000040722196e+00 -2.781930082255934964e-05 4.160449343927602174e-05 7.375479999864086089e+00 -2.069608603852267414e+00 3.584559604278791056e+00 7.375474499836152553e+00 -8.064450756496924374e-05 2.389742478340447729e+00 1.108772299975570874e+01 -2.069651429001025722e+00 5.974250478183784629e+00 1.108771749978122578e+01 2.069441807074156259e+00 1.194932030190652972e+00 1.707967149965882925e+01 -1.289775014488694156e-04 4.779450030063280508e+00 1.707967599965505556e+01 4.138939772874421053e+00 1.348961108239491835e-04 2.078919999944734087e+01 2.069368988322975778e+00 3.584652895954159479e+00 2.078919449944356757e+01 -1.086461006770675429e-04 2.389798552678852328e+00 2.681681299963718601e+01 -2.069689430676282083e+00 5.974316552493495358e+00 2.681681749960925387e+01 2.069503759434432766e+00 1.194853290579061422e+00 3.854471499943816770e+00 -6.702514117179708773e-05 4.779371290451688736e+00 3.854475999940042197e+00 -6.864288980932046168e-05 2.389727927194023938e+00 6.120172999791518187e+00 -2.069639427383270114e+00 5.974235927037360838e+00 6.120167499817036116e+00 -4.139282070276220082e+00 7.169191476673156593e+00 2.918072899940792553e+01 -2.069701285700614513e+00 3.584673476858512231e+00 2.918072449943586122e+01 -6.664356967272040591e-05 2.389729752052391021e+00 1.357082299984471341e+01 -2.069647428121117905e+00 5.974247751837742371e+00 1.357081749981677810e+01 -7.824011546409151776e-05 9.636295942917549396e-05 1.582771999964279885e+01 -2.069649024633084977e+00 3.584604362832057411e+00 1.582772449966831729e+01 2.069379658691442359e+00 1.194950385572029372e+00 9.690671499401647182e+00 -1.911258841628783527e-04 4.779468385444658018e+00 9.690675999397871720e+00 -4.139257799262971105e+00 7.169154174237412747e+00 2.327390899953325132e+01 -2.069677014745348931e+00 3.584646174422768450e+00 2.327390449953189488e+01 2.069431324042594333e+00 1.194966864462972955e+00 2.555771149959258182e+01 -1.394605088510554721e-04 4.779484864306309255e+00 2.555770599958880496e+01 -1.407259800308881942e-04 2.389806825248810274e+00 1.939948299948197885e+01 -2.069721510555635913e+00 5.974324825063455080e+00 1.939948749945404671e+01
2.066519802428993913e+00 1.190905974220470176e+00 1.362691504279242238e+00 -5.041022445941627413e-03 4.779773980832369595e+00 1.368935986724942655e+00 -8.378791117585633738e-04 1.533156482190602132e-02 7.363539953118928061e+00 2.064581400597788274e+00 3.580243601045896007e+00 7.384024500695781867e+00 -6.750579097400100613e-03 2.378432439871254633e+00 1.108779301677073725e+01 -2.065451428379056598e+00 5.974180502274201388e+00 1.108762751013280123e+01 2.069201864279289538e+00 1.186262020394012406e+00 1.707680152447564481e+01 -5.009015434040156589e-03 4.784300013661093587e+00 1.708373597365771701e+01 2.789724069566513077e-03 7.820918064716993537e-03 2.079091998398051189e+01 -2.064441016428949283e+00 3.584278934727722188e+00 2.079202451323951450e+01 7.811427962534773367e-03 2.377658594152415095e+00 2.681529305433275212e+01 -2.071299392679414098e+00 5.963796571046687589e+00 2.682633752653458359e+01 2.065913822259920707e+00 1.189893228461148755e+00 3.840371505799628604e+00 3.296646486090315758e-05 4.782231281101677389e+00 3.851085991803588460e+00 -1.638581248461109391e-03 2.380817905993462880e+00 6.116043022097898962e+00 -2.065039434202349700e+00 5.978215933996476217e+00 6.113437499271573650e+00 2.659481478245757230e-03 4.655482620608378773e-03 2.917711999299861958e+01 2.069258729808715724e+00 3.579987490477041678e+00 2.918558451290359912e+01 9.233598214074674416e-04 2.388669761133343616e+00 1.357196300534133471e+01 -2.077667487918446465e+00 5.985847696283770780e+00 1.356772744646062456e+01 4.136161736700310954e+00 4.050346979176336175e-03 1.582785998123074123e+01 -2.053209029659923690e+00 3.581604485342527511e+00 1.583700454817441994e+01 2.074249583359728089e+00 1.204050441170304353e+00 9.700011484511222193e+00 4.778846345132983613e-03 4.780078443643880348e+00 9.700706009617997339e+00 1.241368410420587952e-02 1.770822749272656094e-02 2.326718997828757907e+01 2.059592973545774530e+00 3.584200135046928359e+00 2.327985447716867640e+01 2.061541360957855673e+00 1.189516812271705470e+00 2.555551149649490128e+01 -5.359505197006906099e-03 4.788424825370034554e+00 2.555474596078943605e+01 3.469286451389970351e-03 2.390366827171975128e+00 1.939299300656315239e+01 -2.071711500574363818e+00 5.972694812881624848e+00 1.939926749942030426e+01
2.063499834836746594e+00 1.186945945256996149e+00 1.358781508582853181e+00 -1.007103076348811639e-02 4.780203958726104929e+00 1.371345973311854483e+00 -1.657939237423097009e-03 3.072152477119483027e-02 7.351489906056677626e+00 2.059651404958996235e+00 3.575903597682903001e+00 7.392634501497345134e+00 -1.348051329729717772e-02 2.367042401143579777e+00 1.108789303387481517e+01 -2.061211427807618790e+00 5.974110526656260411e+00 1.108755752058000255e+01 2.068951922019047984e+00 1.177512010454329516e+00 1.707390154950266137e+01 -9.899053697695125303e-03 4.789189997320474568e+00 1.708783594751837853e+01 5.739674900980568095e-03 1.557094030074151342e-02 2.079266996840593862e+01 -2.059131021269925643e+00 3.583908973986832613e+00 2.079491452715111777e+01 1.578150264141981937e-02 2.365428635802482749e+00 2.681373310941242138e+01 -2.072949354357543683e+00 5.953186589605603984e+00 2.683593755362589661e+01 2.062283885582528065e+00 1.184893165790046332e+00 3.826161511675986393e+00 1.329579197675792189e-04 4.785121271722910130e+00 3.847685983578587710e+00 -3.228519405192302027e-03 2.371897884502033094e+00 6.111853044384921496e+00 -2.060399440994218345e+00 5.982215941012198890e+00 6.106647498763152271e+00 5.459464165936954959e-03 9.165488141640297862e-03 2.917345998655246930e+01 2.069138745439911720e+00 3.575257504083289462e+00 2.919046452646849232e+01 1.923363220472761124e-03 2.387599770332762716e+00 1.357312301089107720e+01 -2.085777548307711893e+00 5.997557640150811942e+00 1.356461739256379140e+01 4.133331713296783505e+00 8.040330896724304233e-03 1.582796996270633905e+01 -2.036659034742040575e+00 3.578584608697665370e+00 1.584635459700418814e+01 2.079149507534047370e+00 1.213210497120078557e+00 9.709411469517529980e+00 9.798818355143927225e-03 4.780688502398016126e+00 9.710826019958252786e+00 2.504359749669423513e-02 3.544828101780793383e-02 2.326045995683656287e+01 2.049712961654857946e+00 3.583750095339962360e+00 2.328585445461632375e+01 2.053611398291034895e+00 1.184006759764622885e+00 2.555328149347634792e+01 -1.060955012998803827e-02 4.797414786204789117e+00 2.555176592177044981e+01 7.109299049745858821e-03 2.390926829066755577e+00 1.938643301371646999e+01 -2.073721490620184849e+00 5.971064800615398127e+00 1.939905749933722490e+01
2.060449867621033437e+00 1.182945915944416893e+00 1.354811512931186623e+00 -1.515103916430354802e-02 4.780643936359381563e+00 1.373765959748066035e+00 -2.477999581187100443e-03 4.621148428201803798e-02 7.339289858701489422e+00 2.054671409347799571e+00 3.571533594207113360e+00 7.401304502265714902e+00 -2.026044700578683369e-02 2.355542362303136628e+00 1.108805305118001705e+01 -2.056911427262568370e+00 5.974040551416489819e+00 1.108749753117122516e+01 2.068691980187121082e+00 1.168692000429965683e+00 1.707099157471060380e+01 -1.479909235041875111e-02 4.794129981041200139e+00 1.709197592120780840e+01 8.709625315010420879e-03 2.340096259678481339e-02 2.079439995264533536e+01 -2.053761026200453532e+00 3.583529013771809435e+00 2.079786454123633632e+01 2.379157802777564015e-02 2.353088677600016609e+00 2.681214316491066185e+01 -2.074619315585058299e+00 5.942456608344441449e+00 2.684563758101946718e+01 2.058603949527891608e+00 1.179823102566298854e+00 3.811861517636625507e+00 2.429491655540418104e-04 4.788051262373317130e+00 3.844275975259968892e+00 -4.828457403491324962e-03 2.362987862689755136e+00 6.107573066618196655e+00 -2.055719447773384445e+00 5.986225948172320344e+00 6.099827498321137575e+00 8.269446904221223679e-03 1.369549351930368988e-02 2.916972998007189588e+01 2.068998761111291440e+00 3.570507517665579833e+00 2.919537454004338528e+01 2.943366593688011724e-03 2.386529779679162466e+00 1.357429301648883602e+01 -2.093977609487049918e+00 6.009407583467969438e+00 1.356149733803847113e+01 4.130481689954682345e+00 1.204031455471155261e-02 1.582802994410468500e+01 -2.019989039903613115e+00 3.575544732984551111e+00 1.585578464618183858e+01 2.084079431132240590e+00 1.222440553450526490e+00 9.718881454391297581e+00 1.486879012169448414e-02 4.781298561736239350e+00 9.721046030418705186e+00 3.783350969361654048e-02 5.339833544429598705e-02 2.325371993515695834e+01 2.039702949674175425e+00 3.583290055058329759e+00 2.329191443177890619e+01 2.045661436109766029e+00 1.178416707115939266e+00 2.555104149064384700e+01 -1.590959519185241797e-02 4.806434746694263183e+00 2.554876588254217040e+01 1.078931167489508534e-02 2.391506831020172807e+00 1.937981302090753744e+01 -2.075741480586813292e+00 5.969424788263912873e+00 1.939883749925834167e+01
2.057379900854322319e+00 1.178905886252844315e+00 1.350751517348417696e+00 -2.027104756628992852e-02 4.781083913760879156e+00 1.376185946087058243e+00 -3.288059785514959362e-03 6.173144347089528500e-02 7.326959811282565127e+00 2.049641413672333989e+00 3.567153590589206225e+00 7.410024502942335722e+00 -2.709038059498490580e-02 2.343992323379141762e+00 1.108828306851060219e+01 -2.052561426603866757e+00 5.973950576467531803e+00 1.108743754194093079e+01 2.068402038783446528e+00 1.159801990204863076e+00 1.706807160005116941e+01 -1.965913133433244697e-02 4.799109965113081522e+00 1.709615589487611942e+01 1.170957535989735135e-02 3.131098495211975113e-02 2.079608993672286843e+01 -2.048331031278620706e+00 3.583149054082509277e+00 2.080087455546589936e+01 3.182165390405707756e-02 2.340688719341007307e+00 2.681049322063271134e+01 -2.076349276521554099e+00 5.931646626943209988e+00 2.685540760850152253e+01 2.054894013835065092e+00 1.174703039081615108e+00 3.797531523671295872e+00 3.429401635098873989e-04 4.791011253054079155e+00 3.840895966828734132e+00 -6.458395823233157446e-03 2.354187840440619794e+00 6.103203088456496950e+00 -2.051019454506095574e+00 5.990235955390110334e+00 6.092987497926535490e+00 1.107942976064271376e-02 1.822549875401891992e-02 2.916594997359131369e+01 2.068828776837219774e+00 3.565747531077888777e+00 2.920028455357484987e+01 3.973369998970280662e-03 2.385449789114476360e+00 1.357547302213976437e+01 -2.102267671446901520e+00 6.021387526293720427e+00 1.355838728291398354e+01 4.127641666814074739e+00 1.603029809773315328e-02 1.582802992555685151e+01 -2.003289045178548555e+00 3.572494857651932421e+00 1.586528469546065523e+01 2.089019354531152395e+00 1.231700609869889718e+00 9.728361439201382410e+00 1.997876180899572224e-02 4.781888621541926732e+00 9.731346041033811289e+00 5.074342066588963945e-02 7.153839071587077270e-02 2.324702991321069590e+01 2.029592937560122934e+00 3.582840014287975272e+00 2.329800440867035149e+01 2.037751474496098947e+00 1.172736654644120025e+00 2.554878148817166306e+01 -2.122964016529513623e-02 4.815434707100125777e+00 2.554577584332356821e+01 1.449932433641528719e-02 2.392096833032708147e+00 1.937315302814151252e+01 -2.077761470580669734e+00 5.967784775943597353e+00 1.939862749917855211e+01
2.054309934478612210e+00 1.174835856298264813e+00 1.346601521853589833e+00 -2.540105584871609964e-02 4.781523890958079726e+00 1.378555932401325235e+00 -4.088119449396069270e-03 7.719140248426085982e-02 7.314549764063531967e+00 2.044581417961508496e+00 3.562783586769394883e+00 7.418734503516964729e+00 -3.391031442737334894e-02 2.332442284807335398e+00 1.108861308586507555e+01 -2.048171425971772930e+00 5.973860601780633495e+00 1.108738755280638166e+01 2.068102097329558298e+00 1.150911979982832900e+00 1.706517162536764687e+01 -2.443917050946367228e-02 4.804109949738705865e+00 1.710036586867855490e+01 1.470952542208714235e-02 3.925100707555829321e-02 2.079769992071251394e+01 -2.042861036388614160e+00 3.582749094802874623e+00 2.080394456985007423e+01 3.979172984005548835e-02 2.328298760590788330e+00 2.680879327618025698e+01 -2.078109237302538936e+00 5.920796645458572094e+00 2.686520763602738882e+01 2.051154078156117055e+00 1.169542975687508868e+00 3.783291529750719029e+00 4.529308748969300652e-04 4.793991243998316776e+00 3.837585958362510041e+00 -8.108335080025589822e-03 2.345577817754000538e+00 6.098723109689650812e+00 -2.046319461071659518e+00 5.994195962754602647e+00 6.086197497677495960e+00 1.387941290899857502e-02 2.272550378770536034e-02 2.916211996717445487e+01 2.068638792409725369e+00 3.561017544348835884e+00 2.920518456696991194e+01 5.023373426554363259e-03 2.384369798638058757e+00 1.357664302783873467e+01 -2.110627733887837199e+00 6.033437468802541837e+00 1.355530722741439931e+01 4.124831644097147532e+00 1.998028158317034786e-02 1.582794990719905748e+01 -1.986669050470333708e+00 3.569434981944751062e+00 1.587481474457489128e+01 2.093919278131764816e+00 1.240950665883202353e+00 9.737781423944172232e+00 2.511873356189340059e-02 4.782458681581315041e+00 9.741666051779427349e+00 6.374333072262892974e-02 8.979844677568026012e-02 2.324042989113035063e+01 2.019422925476820119e+00 3.582379973202192591e+00 2.330410438544589269e+01 2.029941513343581860e+00 1.166976602755589454e+00 2.554652148617547880e+01 -2.654968469294798419e-02 4.824344667596839109e+00 2.554281580436801846e+01 1.823933696169587060e-02 2.392696835192172244e+00 1.936648303541839411e+01 -2.079761460717900245e+00 5.966164763770330559e+00 1.939842749908759600e+01
2.051259968392408872e+00 1.170765826108789875e+00 1.342331526407160247e+00 -3.053106398749818109e-02 4.781963867979667882e+00 1.380865918715038054e+00 -4.858177954384309410e-03 9.245136167240050606e-02 7.302139717502800664e+00 2.039531422055772314e+00 3.558463582891747023e+00 7.427404503969094129e+00 -4.069024895725116553e-02 2.320962246820218233e+00 1.108906310311087751e+01 -2.043761425250468999e+00 5.973750627239771127e+00 1.108734756377784869e+01 2.067762155520930900e+00 1.142061969677780731e+00 1.706232165047040539e+01 -2.908920976001717548e-02 4.809109935207946052e+00 1.710460584279450202e+01 1.769947574788446540e-02 4.719102882118566406e-02 2.079919990467799096e+01 -2.037381041598253173e+00 3.582349135700287679e+00 2.080705458425779497e+01 4.767180546352687426e-02 2.315978801204630066e+00 2.680705333130507739e+01 -2.079909198145688087e+00 5.909956663744568850e+00 2.687500766342644454e+01 2.047404142075464062e+00 1.164372912792883685e+00 3.769241535835352597e+00 5.629212609684463697e-04 4.796981235265205257e+00 3.834385949866440324e+00 -9.778275985707803042e-03 2.337297794629874748e+00 6.094133129907572943e+00 -2.041659467484693291e+00 5.998095970121696041e+00 6.079487497506677052e+00 1.662939658105363691e-02 2.715550838834832059e-02 2.915823996084183278e+01 2.068539370416718981e+00 3.556162005844278884e+00 3.934580740808034729e-03 6.093376736199746305e-03 2.383309808279166386e+00 1.357781303352716762e+01 -2.119007796626412254e+00 6.045517411342865799e+00 1.355227717177769264e+01 4.122071622001922009e+00 2.386026509771229862e-02 1.582777988916752321e+01 -1.970239055725957700e+00 3.566385105020077440e+00 1.588430479320020616e+01 2.098749202576652095e+00 1.250100721170060547e+00 9.747091408810833357e+00 3.025870561702933420e-02 4.782988741533973354e+00 9.751956062641671252e+00 7.678324013427963168e-02 1.080985035680894629e-01 2.323399986902945713e+01 2.009212913453070737e+00 3.581929931741155038e+00 2.331015436209529312e+01 2.022301552569909067e+00 1.161146551885481326e+00 2.554427148479513576e+01 -3.183972838364060309e-02 4.833084628446160380e+00 2.553991576598235014e+01 2.198934933798374347e-02 2.393326837499715865e+00 1.935984304263129374e+01 -2.081741451056683623e+00 5.964574751744025072e+00 1.939823749895619187e+01
2.048230002595695876e+00 1.166695795684435932e+00 1.337941531009145590e+00 -3.565107185224057618e-02 4.782393844795744364e+00 1.383085905081668399e+00 -5.608234976781048542e-03 1.074513210065871638e-01 7.289739671751960692e+00 2.034491425945379017e+00 3.554203578897669136e+00 7.436014504269457426e+00 -4.740018443113106633e-02 2.309582209679565068e+00 1.108966312023262191e+01 -2.039331424498072032e+00 5.973630652844875044e+00 1.108731757482605751e+01 2.067402213159355018e+00 1.133281959434917052e+00 1.705953167531990289e+01 -3.356924906198929109e-02 4.814109921723368934e+00 1.710886581732061984e+01 2.067942657394178374e-02 5.511105004245214767e-02 2.080053988867788561e+01 -2.031901046825548729e+00 3.581939176687359616e+00 2.081019459869420629e+01 5.540188054237538823e-02 2.303768840834514720e+00 2.680527338574505691e+01 -2.081759159070539766e+00 5.899146681625901500e+00 2.688476769061596272e+01 2.043654205399799029e+00 1.159192850690064835e+00 3.755461541949371984e+00 6.729112733222497025e-04 4.799981226913312859e+00 3.831315941340545539e+00 -1.146821892206361347e-02 2.329417771038919671e+00 6.089423148905225069e+00 -2.037059473750135297e+00 6.001915977521830925e+00 6.072907497424359313e+00 1.932938078631663351e-02 3.150551261440640710e-02 2.915432995462274945e+01 2.068259385395483818e+00 3.551582018254982209e+00 8.724593478686846343e-03 7.173379951965658773e-03 2.382269817950464663e+00 1.357897303918091936e+01 -2.127397859653119561e+00 6.057617354031168411e+00 1.354931711605731692e+01 4.119361600808561619e+00 2.763024858275582238e-02 1.582749987157943927e+01 -1.954059060887564314e+00 3.563335226529925848e+00 1.589375484122094129e+01 2.103459128092842967e+00 1.259140775235486620e+00 9.756221393709877177e+00 3.538867796462476234e-02 4.783488801283294123e+00 9.762196073567116272e+00 8.983314892003481378e-02 1.264185610362236478e-01 2.322777984689411923e+01 1.998992901604674133e+00 3.581469890078732732e+00 2.331615433874963728e+01 2.014891592150776845e+00 1.155246502410901988e+00 2.554204148417560205e+01 -3.708977114576519907e-02 4.841634589735250849e+00 2.553708572824932688e+01 2.574936153279661771e-02 2.393966840013839636e+00 1.935325304983879846e+01 -2.083671441703501603e+00 5.963024740097107923e+00 1.939807749882753285e+01
2.045230037243083387e+00 1.162615764966028253e+00 1.333391535713015497e+00 -4.075107950098853793e-02 4.782823821464276648e+00 1.385215891496109464e+00 -6.328290342675832458e-03 1.221612805447588324e-01 7.277349626923046877e+00 2.029441429688237708e+00 3.549993574671170826e+00 7.444564504399055593e+00 -5.403012087324294416e-02 2.298302173472583920e+00 1.109042313725448459e+01 -2.034881423632555197e+00 5.973490678566566459e+00 1.108728758598032904e+01 2.067002270278570641e+00 1.124561949167488750e+00 1.705681169989713553e+01 -3.786928857980782770e-02 4.819129909401443257e+00 1.711316579222251733e+01 2.363937778418697885e-02 6.303107068125499146e-02 2.080171987262944455e+01 -2.026391052143120319e+00 3.581519218025783324e+00 2.081339461323179663e+01 6.298195515860402494e-02 2.291658879450999997e+00 2.680344343952951647e+01 -2.083669120009632447e+00 5.888346699102995352e+00 2.689450771763040038e+01 2.039894268220907581e+00 1.153982789350355587e+00 3.741961548127220372e+00 7.829007572606028588e-04 4.803001219059785498e+00 3.828415932755560025e+00 -1.317816429019847899e-02 2.322027746834630868e+00 6.084543166418989735e+00 -2.032509479752113268e+00 6.005635985012936828e+00 6.066457497513312980e+00 2.197936571309784537e-02 3.575551637783438985e-02 2.915035994857578672e+01 2.067929400078548419e+00 3.547082030171280653e+00 1.344460586129548989e-02 8.283383131746114084e-03 2.381239827767844375e+00 1.358012304487761490e+01 -2.135837923084066059e+00 6.069757296635401644e+00 1.354642706009807007e+01 4.116731580589473971e+00 3.129023212432836820e-02 1.582707985450730348e+01 -1.938159065897283595e+00 3.560275346300245669e+00 1.590316488859393296e+01 2.108049054820398283e+00 1.268050828050161227e+00 9.765161378699898975e+00 4.051865061424078651e-02 4.783948860945798742e+00 9.772406084609245980e+00 1.029330567415301378e-01 1.448086194704785723e-01 2.322178982467451291e+01 1.988742889781686785e+00 3.581029848069546162e+00 2.332209431527275356e+01 2.007731632390474363e+00 1.149236454359812143e+00 2.553980148448239618e+01 -4.228981280554806182e-02 4.849964551521940948e+00 2.553432569128101193e+01 2.950937340589062860e-02 2.394636842705740509e+00 1.934672305695818650e+01 -2.085561432610189225e+00 5.961514728712873357e+00 1.939792749867749322e+01
2.042240072571344545e+00 1.158505733691121975e+00 1.328631540529045418e+00 -4.588108688542180680e-02 4.783253797636746185e+00 1.387235877837599718e+00 -7.008343998922898603e-03 1.366012401397878329e-01 7.264899582981629855e+00 2.024371433187710068e+00 3.545833570271375468e+00 7.453094504333759751e+00 -6.060005825458639195e-02 2.287092138258966401e+00 1.109140315421604228e+01 -2.030371422620095956e+00 5.973320704665991521e+00 1.108726759736664036e+01 2.066562327134681354e+00 1.115861938846062440e+00 1.705415172431928283e+01 -4.197932855024743420e-02 4.824189898446472391e+00 1.711755576746579521e+01 2.658932926747706663e-02 7.099109064894545962e-02 2.080268985643965962e+01 -2.020851057468822987e+00 3.581079259686100080e+00 2.081664462789988335e+01 7.043202956831909334e-02 2.279608917140546254e+00 2.680155349282395960e+01 -2.085649080817999046e+00 5.877506716293399158e+00 2.690428774459210359e+01 2.036094330703087429e+00 1.148722728541181182e+00 3.728721554355011403e+00 9.028896789572621925e-04 4.806051211733283424e+00 3.825675924106388681e+00 -1.492811215292280322e-02 2.315167721695939207e+00 6.079423182283397509e+00 -2.027999485616261754e+00 6.009285992594365133e+00 6.060117497709869738e+00 2.457935129374762967e-02 3.992551961980626840e-02 2.914630994264236108e+01 2.067539414393436026e+00 3.542662041623067193e+00 1.812461786450412018e-02 9.423386217557349481e-03 2.380229837731193676e+00 1.358126305058797989e+01 -2.144357987441118052e+00 6.082027238981493333e+00 1.354360700356388314e+01 4.114151561320497308e+00 3.484021557763650190e-02 1.582652983787863121e+01 -1.922479070653644984e+00 3.557175464766701989e+00 1.591256493555204621e+01 2.112508982619179854e+00 1.276850879585316845e+00 9.773921363698169884e+00 4.567862352721718117e-02 4.784358920812536553e+00 9.782626095869870753e+00 1.161529631010529834e-01 1.633586792472671578e-01 2.321601980227612927e+01 1.978392878109741293e+00 3.580579805366091328e+00 2.332799429158342974e+01 2.000821673438800019e+00 1.143086407761289003e+00 2.553756148580339413e+01 -4.747985351278566357e-02 4.858104513544786229e+00 2.553162565489291680e+01 3.331938499592226877e-02 2.395346845748011599e+00 1.934021306408097729e+01 -2.087411423825066059e+00 5.960044717649743085e+00 1.939780749850611130e+01
2.040919999999999845e+00 1.200509999999999966e+00 1.328270000000000062e+00 -1.115499999999999964e-01 4.862390000000000434e+00 1.326359999999999983e+00 4.063209999999999766e+00 -9.367000000000000326e-02 7.189329999999999998e+00 1.911759999999999904e+00 3.561259999999999870e+00 7.188920000000000421e+00 -1.973699999999999899e-01 2.291500000000000092e+00 1.081128000000000000e+01 -2.354060000000000041e+00 5.952519999999999811e+00 1.081051000000000073e+01 1.826589999999999936e+00 1.001090000000000035e+00 1.664926000000000172e+01 -3.293499999999999761e-01 4.652479999999999727e+00 1.665597999999999956e+01 -4.237299999999999955e-01 7.043510000000000382e+00 2.027045999999999992e+01 -2.433759999999999923e+00 3.390179999999999971e+00 2.026779000000000153e+01 -4.045500000000000207e-01 2.089080000000000048e+00 2.614650999999999925e+01 -2.562479999999999869e+00 5.747589999999999755e+00 2.613844999999999885e+01 2.000890000000000057e+00 1.165359999999999951e+00 3.763170000000000126e+00 -1.503899999999999959e-01 4.828179999999999694e+00 3.762290000000000134e+00 -1.262199999999999989e-01 2.356199999999999850e+00 5.972870000000000346e+00 -2.282979999999999787e+00 6.016180000000000305e+00 5.966890000000000249e+00 -4.696380000000000443e+00 6.933419999999999916e+00 2.844346000000000174e+01 -2.539390000000000036e+00 3.279799999999999827e+00 2.844744000000000028e+01 -2.307500000000000107e-01 2.262919999999999821e+00 1.323001000000000005e+01 -2.382359999999999811e+00 5.923560000000000159e+00 1.322821000000000069e+01 -2.156500000000000083e-01 -2.026000000000000023e-01 1.542853000000000030e+01 1.798890000000000100e+00 3.447760000000000158e+00 1.543356999999999957e+01 1.926989999999999981e+00 1.094710000000000072e+00 9.447520000000000806e+00 -2.229399999999999993e-01 4.752410000000000245e+00 9.447810000000000485e+00 3.843119999999999870e+00 -2.975800000000000112e-01 2.269452000000000069e+01 1.696420000000000039e+00 3.356479999999999908e+00 2.269032999999999944e+01 1.713649999999999896e+00 8.892299999999999649e-01 2.491499999999999915e+01 -4.407499999999999751e-01 4.547220000000000262e+00 2.491492999999999824e+01 -3.066599999999999882e-01 2.189010000000000122e+00 1.891261000000000081e+01 -2.466250000000000053e+00 5.849969999999999892e+00 1.891241000000000128e+01
2.039060000000000095e+00 1.192039999999999988e+00 1.325460000000000083e+00 -1.095700000000000007e-01 4.870099999999999874e+00 1.326170000000000071e+00 -2.498299999999999965e-01 7.220799999999999663e+00 7.185509999999999842e+00 -2.246760000000000090e+00 3.563190000000000079e+00 7.184409999999999741e+00 -1.935300000000000076e-01 2.280819999999999848e+00 1.081422000000000061e+01 -2.359710000000000196e+00 5.958619999999999806e+00 1.080320000000000036e+01 1.830600000000000005e+00 9.980099999999999527e-01 1.664716999999999913e+01 -3.326500000000000012e-01 4.648930000000000007e+00 1.665476999999999919e+01 -4.216099999999999848e-01 7.046359999999999957e+00 2.026192999999999955e+01 1.728679999999999994e+00 3.386289999999999800e+00 2.027420000000000044e+01 -3.952600000000000002e-01 2.100330000000000030e+00 2.614570000000000149e+01 -2.567000000000000171e+00 5.744919999999999582e+00 2.614130000000000109e+01 1.993759999999999977e+00 1.167629999999999946e+00 3.772079999999999878e+00 -1.552000000000000046e-01 4.819919999999999760e+00 3.766599999999999948e+00 -1.117100000000000037e-01 2.352959999999999940e+00 5.986360000000000348e+00 -2.278890000000000082e+00 6.011660000000000004e+00 5.962080000000000268e+00 -4.684249999999999581e+00 6.927769999999999762e+00 2.846086000000000027e+01 -2.545760000000000023e+00 3.280100000000000016e+00 2.844596999999999909e+01 -2.274899999999999978e-01 2.269909999999999872e+00 1.323410999999999937e+01 -2.371929999999999872e+00 5.922579999999999956e+00 1.322634000000000043e+01 -2.181899999999999951e-01 -1.850999999999999868e-01 1.541668999999999912e+01 -2.369520000000000071e+00 3.459999999999999964e+00 1.543610999999999933e+01 1.914849999999999941e+00 1.084100000000000064e+00 9.449790000000000134e+00 -2.299599999999999977e-01 4.758289999999999687e+00 9.444100000000000605e+00 3.840180000000000149e+00 -2.990300000000000180e-01 2.268937999999999988e+01 -2.469800000000000217e+00 3.360139999999999905e+00 2.269934999999999903e+01 1.714250000000000052e+00 8.915999999999999481e-01 2.492509000000000086e+01 -4.361400000000000277e-01 4.551429999999999865e+00 2.491232000000000113e+01 -3.101200000000000068e-01 2.182729999999999837e+00 1.890174999999999983e+01 -2.468199999999999950e+00 5.841719999999999580e+00 1.891027000000000058e+01
2.037240000000000162e+00 1.183540000000000036e+00 1.322559999999999958e+00 -1.075300000000000006e-01 4.877889999999999837e+00 1.325879999999999947e+00 -2.586100000000000065e-01 7.219039999999999679e+00 7.181630000000000180e+00 -2.239250000000000185e+00 3.565199999999999925e+00 7.179850000000000065e+00 -1.896200000000000108e-01 2.270090000000000163e+00 1.081700999999999979e+01 -2.365369999999999973e+00 5.964789999999999814e+00 1.079566999999999943e+01 1.834689999999999932e+00 9.949400000000000466e-01 1.664501999999999882e+01 -3.359099999999999864e-01 4.645430000000000170e+00 1.665349000000000146e+01 -2.810799999999999965e-01 -2.669500000000000206e-01 2.025318000000000040e+01 1.725230000000000041e+00 3.382400000000000073e+00 2.028050999999999959e+01 -3.858599999999999808e-01 2.111730000000000107e+00 2.614485000000000170e+01 -2.571509999999999962e+00 5.742280000000000051e+00 2.614414999999999978e+01 1.986569999999999947e+00 1.169910000000000005e+00 3.781219999999999803e+00 -1.600699999999999901e-01 4.811569999999999681e+00 3.771139999999999937e+00 -9.717000000000000637e-02 2.349639999999999951e+00 5.999939999999999607e+00 -2.274849999999999817e+00 6.007060000000000066e+00 5.957220000000000404e+00 -4.275009999999999977e+00 7.299879999999999924e+00 5.329999999999999669e-03 1.613650000000000029e+00 3.280359999999999943e+00 2.844445999999999941e+01 -2.242099999999999926e-01 2.276959999999999873e+00 1.323855000000000004e+01 -2.361400000000000166e+00 5.921579999999999622e+00 1.322475000000000023e+01 -2.208100000000000063e-01 -1.675399999999999945e-01 1.540475999999999956e+01 -2.372129999999999850e+00 3.472280000000000033e+00 1.543866000000000049e+01 1.902570000000000094e+00 1.073369999999999935e+00 9.452059999999999462e+00 -2.371199999999999974e-01 4.764149999999999885e+00 9.440360000000000085e+00 3.837209999999999788e+00 -3.005099999999999993e-01 2.268447000000000102e+01 -2.470130000000000159e+00 3.363830000000000098e+00 2.270872999999999919e+01 1.714830000000000076e+00 8.939300000000000024e-01 2.493528999999999840e+01 -4.315800000000000192e-01 4.555609999999999715e+00 2.490970000000000084e+01 -3.136900000000000244e-01 2.176349999999999785e+00 1.889078999999999908e+01 -2.470229999999999926e+00 5.833350000000000257e+00 1.890808000000000177e+01