-1.001986736300000018e+02
-1.001914690600000029e+02
-1.001677837299999965e+02
-1.001270148600000027e+02
-1.000688592500000027e+02
-9.999358144999999354e+01
-9.990196145000000172e+01
-9.979509145000000103e+01
-9.967398930000000234e+01
-9.953941602999999816e+01
-9.996680505999999866e+01
-9.997169399000000567e+01
-9.996271849000000032e+01
-9.993913046999999494e+01
-9.990043486999999800e+01
-9.984661088000000007e+01
-9.977814324000000568e+01
-9.969578348000000290e+01
-9.960016249000000244e+01
-9.949155466999999931e+01
-1.001102460400000069e+02
-1.001147398800000019e+02
-1.001028132900000003e+02
-1.000737415300000066e+02
-1.000271843600000068e+02
-9.996341477999999370e+01
-9.988321833000000538e+01
-9.978756955000000062e+01
-9.967731240999999898e+01
-9.955287110000000439e+01
-1.001661803899999938e+02
-1.001661364400000025e+02
-1.001526247200000057e+02
-1.001254888699999981e+02
-1.000848948499999977e+02
-1.000315065300000015e+02
-9.996643754000000115e+01
-9.989098167000000217e+01
-9.980634059999999863e+01
-9.971343957000000557e+01
-9.991251748999999904e+01
-9.991788492999999960e+01
-9.990923822000000598e+01
-9.988641065000000197e+01
-9.984940145000000200e+01
-9.979858742000000404e+01
-9.973469183999999643e+01
-9.965858547000000556e+01
-9.957103059000000655e+01
-9.947239152000000217e+01
