6.541832512850308257e-03 3.705214952989374557e-03 6.043200495206127454e-02 6.541832534594339311e-03 3.705214926626214204e-03 6.042300495206133493e-02 -1.391287572437553167e-02 -8.091174467447396351e-03 -3.202000991279373848e-02 -1.391087572534197361e-02 -8.090174461709067136e-03 -3.202200991089100557e-02 7.946865669087029710e-03 4.776175370702810154e-03 4.413800520940856092e-02 7.947865718373480631e-03 4.775175323774925699e-03 4.412000521475393372e-02 -1.348189770566628892e-02 -7.873146850101563066e-03 -2.344500951014278842e-02 -1.348089767280866332e-02 -7.872146891171011990e-03 -2.346100951065593909e-02 7.574772349029730047e-03 4.313289612914073326e-03 8.387500566661978962e-02 7.574772331634505029e-03 4.316289612914010407e-03 8.387500565783202744e-02 -1.269691229109438414e-02 -7.373128129621993321e-03 -1.860800907825534145e-02 -1.269791227998074735e-02 -7.377128120774123499e-03 -1.860300906895434939e-02 -1.097929222675144475e-03 -6.480876237653537039e-04 -2.774000075439649396e-02 -1.097929276310420166e-03 -6.450875798268161437e-04 -2.772500076318436604e-02 1.688900455190042380e-02 9.802023500168148204e-03 -2.540898790877035851e-02 1.689000458379164363e-02 9.799023488391185588e-03 -2.541498789756656621e-02 -8.396904921402407670e-03 -4.769130438423772878e-03 -2.790800631722423555e-02 -8.396904916570401348e-03 -4.769130444282253245e-03 -2.791000631722422368e-02 -1.497007885322405515e-03 -8.429931933177110120e-04 5.286998852591377925e-03 -1.497007987277749639e-03 -8.399930907943723791e-04 5.321998843803363646e-03 1.586003285443431110e-02 9.232987218905535851e-03 -3.575798872800022704e-02 1.585703270367575662e-02 9.253987236660727450e-03 -3.574598879676260665e-02 -9.128976721143803111e-03 -5.458042786730278768e-03 3.463993932303593114e-03 -9.128976689735758543e-03 -5.463042789659412930e-03 3.462993946949870661e-03 -1.132050629261994188e-03 -6.629405182166262867e-04 2.254699920703627167e-02 -1.132050640858810577e-03 -6.609405182166686304e-04 2.254699920117776354e-02 1.519098150471096149e-02 8.813048550516637894e-03 -1.349598911416892248e-02 1.519098151775738134e-02 8.812048541728938894e-03 -1.349898911123964713e-02 -8.637932342553191617e-03 -4.922097513932927743e-03 -1.619100645138555825e-02 -8.635932308729183521e-03 -4.927097508194470954e-03 -1.619300643190730096e-02
2.002495490345067297e-02 7.639117085614708855e-03 3.320260035544061409e-04 2.046697374053775553e-02 1.902137142057474433e-03 6.304043876508422760e-03 5.017785733513811623e-03 -1.270460303995364082e-01 -2.030961572882700877e-02 -8.800410092254272248e-05 3.112578563990634622e-02 -7.300509138804513187e-02 3.381640591181235556e-02 6.233247816952330184e-02 9.629989911445101247e-02 9.480928822901310907e-03 -3.970830811137660357e-03 3.899103453775494554e-02 -2.417222515413387784e-02 3.369489594287692485e-02 1.232484289946749433e-02 7.832319274769426742e-02 -2.369261297960776474e-02 -2.291674136970732467e-02 -5.761927028367310258e-03 -1.210603677591094544e-02 -1.148978459355097081e-03 4.077791478526215929e-03 -4.187205903797449041e-04 8.731401107912091508e-02 -8.197327017038603947e-02 6.693938165028683052e-02 -4.883039412958022768e-02 -3.009405202030963900e-02 2.632670349029225809e-02 -4.165314982487076240e-02 -1.116709804732769798e-05 5.001990161544153700e-04 6.796299850830714306e-02 -8.250583053953074999e-04 -5.949299093729601895e-04 2.556099974953311010e-02 7.058357744479219938e-03 1.301369047332479878e-01 -4.649536414956326885e-02 -9.008888253380463798e-03 -3.140896691142548713e-02 2.912907023911134527e-02 -2.507370838692086004e-02 -3.761623450201723173e-02 -3.042195039140164689e-02 -2.269103904361789367e-02 2.664372845385416799e-02 -4.778513286785221470e-02 3.588961050570955730e-03 5.776027427544426496e-03 2.258991751587230944e-03 -9.360471748651612691e-04 -5.429910057001796110e-03 3.255801364425196798e-02 3.502731711039393930e-02 -2.741098866981914878e-02 -6.546783508098423521e-02 -8.810602883567907051e-02 2.303436214762611886e-02 -4.334828033796147423e-02 -3.258661300247270298e-02 -4.504434149219204570e-02 -5.207494678405216043e-02 -1.292184770406753364e-02 -1.676314172809130823e-02 -2.280498211612560361e-02 -5.201176739731553852e-03 -7.872760523766800245e-03 9.204901049580867245e-02 1.723007924457366485e-03 4.649971137202550350e-04 -4.395997199326786425e-03 8.886006095691342810e-02 -1.159247715997343588e-02 2.592248643383125977e-03 3.017141853624794381e-02 -8.079276451276930227e-02 2.066830955580938739e-02 -8.604037048276960697e-03 2.793975386788188908e-03 8.628971028454045580e-03 1.031494256607895857e-02 1.171304710043462489e-02 -4.339009389422024583e-03
3.384608820569090515e-02 1.134200957245068073e-02 -6.372995145166068798e-02 3.368212049896465721e-02 -3.689482012394176185e-04 -4.898991754349078798e-02 2.343549295881546674e-02 -2.558718754008900143e-01 -3.852193869566931331e-03 1.292987240672914366e-02 6.862374723107983465e-02 -1.118861697776385861e-01 6.516191715749737601e-02 1.224738297041977481e-01 1.542597986772529794e-01 1.148598949595613580e-02 -1.271083130338519079e-02 3.485406498352335014e-02 -3.549955906349922669e-02 7.613593673827935560e-02 4.867369121282930783e-02 1.691632440289718431e-01 -3.477307052710718049e-02 -1.754848944243805539e-02 -1.865562294892919928e-02 -2.837736582769805407e-02 -8.795896194856087091e-02 4.478110158407117708e-04 -5.087732502208548377e-03 9.043301598575634315e-02 -1.539276294248516086e-01 1.391098926279815406e-01 -7.334277937654817836e-02 -4.805917825421349154e-02 5.745453353619763698e-02 -6.411128440974860065e-02 1.134588775870345794e-03 1.206496684098674887e-03 1.673139992082579020e-01 -3.831928362190339856e-04 -1.267675271233269631e-04 8.012099944611485169e-02 -2.107326830963070999e-03 2.591827743732607603e-01 -7.285576430047878416e-02 -3.430479612534254735e-02 -6.946195776640178010e-02 8.232412059085295053e-02 -4.214251208772459151e-02 -6.996234407542858968e-02 -3.404089688018410720e-02 -3.677617505709693257e-02 5.850358770848782669e-02 -6.795226022293177071e-02 8.832935637489811032e-03 1.237004228882039591e-02 -3.048014894444845812e-03 -6.620879734428490116e-04 -9.052833532325410895e-03 5.814002491873757755e-02 5.476960797172952811e-02 -6.513496164038660996e-02 -9.531967688115831894e-02 -1.913280554889287277e-01 3.220573146026729089e-02 -5.432855658799115584e-02 -6.111622682448990956e-02 -8.715567908622878779e-02 -1.108498923578900147e-01 -1.680971853476567052e-02 -2.857323785460976623e-02 -4.792495691480432723e-02 -8.571312259598671754e-03 -1.395857296991579594e-02 1.627480201808672866e-01 4.572066527951346333e-03 1.823933026541196996e-03 -3.191399429683910299e-02 1.646471538367472731e-01 -3.310499908706490690e-02 1.577949476072983831e-02 4.590382994948326995e-02 -1.649795802517697307e-01 5.243059416904212455e-02 -8.081141981124166304e-03 1.031505276917894440e-02 3.401095026090811962e-02 2.846782161236289035e-02 2.789418525117619632e-02 6.889987069635824211e-03
4.828223065106702905e-02 1.506389440629434147e-02 -1.316219274766677050e-01 4.652127144049435920e-02 -2.971038469451981693e-03 -1.052208789023018898e-01 4.156225036226636471e-02 -3.959277039778205109e-01 1.878826018224250688e-02 2.552575277658974615e-02 1.049477099460682655e-01 -1.495482457478667371e-01 1.025514027561037073e-01 1.851462295862226770e-01 2.167607054282697510e-01 1.412504912770951027e-02 -2.139082727873982057e-02 3.100409678527844826e-02 -4.763490152170683778e-02 1.194329771955464775e-01 8.650653506657964009e-02 2.598032554370259262e-01 -4.121151352475450197e-02 -6.817251595946765760e-03 -3.140431158325039662e-02 -4.518569909757860770e-02 -1.764959435144196342e-01 -3.497170509884183452e-03 -9.621745900739208171e-03 9.366801973590775654e-02 -2.289089929208703578e-01 2.095344034710540926e-01 -9.190916682237122715e-02 -6.651129472167922885e-02 8.671136207056683032e-02 -8.612141469061565524e-02 2.534330795882402086e-03 1.915812600681998309e-03 2.723920005130402444e-01 3.086701913117010569e-04 4.303986393753122652e-04 1.354779994859837688e-01 -1.047405483907252327e-02 3.983586300892216214e-01 -1.055511921944363996e-01 -5.931071988058150835e-02 -1.043119502001378790e-01 1.344061622608545004e-01 -5.999531242297245076e-02 -1.024234614667878518e-01 -3.877684492621021745e-02 -5.065531388621759973e-02 9.114944604555587360e-02 -8.884038938274117780e-02 1.427890975134498905e-02 1.907105814269346306e-02 -8.416021365880101482e-03 -5.513033519088109602e-05 -1.233575557180302540e-02 8.355303600180470636e-02 7.515090780180751218e-02 -1.038019351502166426e-01 -1.266205143751771844e-01 -2.951960416170898993e-01 3.649308222856743888e-02 -7.036082009229532863e-02 -9.616380687442480091e-02 -1.329930692260059277e-01 -1.746608427646710038e-01 -2.145158617146232863e-02 -4.086833881597137091e-02 -7.320293211443988646e-02 -1.220044992248768730e-02 -2.047938126142487963e-02 2.353780305144005380e-01 7.835123757708572362e-03 3.661869637991002797e-03 -6.001299179724128852e-02 2.434832576378441749e-01 -5.524351217511044160e-02 2.594875007821410146e-02 6.286921841461523552e-02 -2.443053951919710864e-01 8.202486752217429122e-02 -7.438247270596770079e-03 1.776513177889742570e-02 5.971092999124924527e-02 4.581470526692383444e-02 4.356931669847022986e-02 1.742598306361235055e-02
6.342237954720089665e-02 1.890577465748305777e-02 -2.024719021523017914e-01 5.903842558956150233e-02 -6.067131020728870790e-03 -1.615938395919940818e-01 5.905105594400588548e-02 -5.473365148528118729e-01 4.873474594861048476e-02 3.774763579919419854e-02 1.399766763802236802e-01 -1.852003188283365964e-01 1.466498620909877648e-01 2.503426824683605001e-01 2.840746209946251599e-01 1.706110778388974722e-02 -2.990382152317332815e-02 2.715712881540853843e-02 -6.046325347200845468e-02 1.638670171495915096e-01 1.255393739154180843e-01 3.497252291448114114e-01 -4.318394637330464497e-02 8.799971433859733044e-03 -4.418599245292122168e-02 -6.262603752983353367e-02 -2.667299233086949384e-01 -8.204149737493199313e-03 -1.405876718587918510e-02 9.571902136095017388e-02 -3.062683600443495968e-01 2.779449190821027260e-01 -1.041405541140821012e-01 -8.535939703622208441e-02 1.132981899198348824e-01 -1.075815381071567878e-01 4.037070236000266446e-03 2.217135110789419591e-03 3.795170032617907752e-01 1.234531568180716101e-03 1.405565225400461646e-03 1.905149988667672045e-01 -1.813182626013149640e-02 5.476014717781334529e-01 -1.444386478643947813e-01 -8.360265715479971160e-02 -1.361429433271021672e-01 1.848381968124837293e-01 -7.835811203817041881e-02 -1.345345851488684574e-01 -4.465079522959691100e-02 -6.425745393160312013e-02 1.241713048199532682e-01 -1.101275189747692312e-01 1.984388578301271577e-02 2.568507297297864186e-02 -1.436902729496704507e-02 6.508251561834642231e-04 -1.495967906718361114e-02 1.082730453936848747e-01 9.605721483601757649e-02 -1.434709073060269346e-01 -1.584983476656226520e-01 -3.983919913090211429e-01 3.620742486581504660e-02 -9.049906857763344303e-02 -1.377553586379983430e-01 -1.819225098683559250e-01 -2.427587999243578376e-01 -2.643545279531809775e-02 -5.353644036610528956e-02 -9.800490704772368833e-02 -1.529459563217840795e-02 -2.606618326077605324e-02 3.090970394045594594e-01 1.131317888555542252e-02 5.634809095438854040e-03 -8.756598917365909784e-02 3.246673765162430558e-01 -7.854602174537565762e-02 3.267101447820379423e-02 8.047358180367723823e-02 -3.182882135860921613e-01 1.091751267682390669e-01 -6.474353226925722536e-03 2.514521395051992625e-02 8.585491070215829634e-02 6.227759483777602079e-02 5.863744011421248570e-02 2.696997869991665797e-02
7.905953231334103548e-02 2.268065356939168858e-02 -2.747628754309086041e-01 7.095158022770330086e-02 -9.464225551081431945e-03 -2.174468008592217450e-01 7.581691220810131415e-02 -7.105043087003022340e-01 8.592526441352932309e-02 4.927652287195259662e-02 1.735396441917402832e-01 -2.190103892888511650e-01 1.976632990643987509e-01 3.175901881391358650e-01 3.557215472595472994e-01 2.041916363993434569e-02 -3.811181206988646653e-02 2.373716097167561170e-02 -7.387560725040356879e-02 2.083150558352216686e-01 1.652952113122234390e-01 4.378911648566121695e-01 -4.046937628657548691e-02 2.889517649184419196e-02 -5.666567448649270644e-02 -7.988937404416279753e-02 -3.569069028918083197e-01 -1.319612795375679597e-02 -1.839979202464497171e-02 9.712102201623441788e-02 -3.857057305938470515e-01 3.444404402603081228e-01 -1.103579408169246684e-01 -1.044014839154378399e-01 1.370730176987081939e-01 -1.286816537553982787e-01 5.634805434946298271e-03 2.284464958966446989e-03 4.889590069254901583e-01 2.399392420228389170e-03 2.583732406430607528e-03 2.452819982303342805e-01 -2.498163914357202225e-02 7.067352988862594110e-01 -1.899031305556866667e-01 -1.070696075174647072e-01 -1.649229372506281210e-01 2.333652244201810111e-01 -9.720291019786196640e-02 -1.664017151057926025e-01 -5.171274741219052118e-02 -7.742959526140542892e-02 1.575971648045798312e-01 -1.318526487114045076e-01 2.546086258005788791e-02 3.225208750722353968e-02 -2.052603296075021164e-02 1.468778793010125242e-03 -1.697960391085670886e-02 1.323110532868952138e-01 1.173375268202713206e-01 -1.837668788867169167e-01 -1.909201782157581018e-01 -5.002659045661645987e-01 3.119776420421462373e-02 -1.143803000313221019e-01 -1.864148813840509067e-01 -2.340730040312164473e-01 -3.151367647250513659e-01 -3.197831935435191397e-02 -6.645154349965144702e-02 -1.222408826080089161e-01 -1.831574487896887524e-02 -3.116798395797487631e-02 3.831160470503995330e-01 1.503923224732179112e-02 7.822750620645992775e-03 -1.149039865807026661e-01 4.079585089648656848e-01 -1.027455292450208807e-01 3.592928659637101979e-02 9.877791927931633964e-02 -3.868790344096139644e-01 1.341103719111003123e-01 -5.295459426838180876e-03 3.250729779065150010e-02 1.121428919852195394e-01 7.777549140776303382e-02 7.292055496723244545e-02 3.550097430426116946e-02
9.520668595366282849e-02 2.658353347875744288e-02 -3.477228478522865207e-01 8.227673396042180232e-02 -1.325931959505683051e-02 -2.719697623811921372e-01 9.182780678426409604e-02 -8.830230876362261672e-01 1.297008084461226951e-01 5.977641429057772154e-02 2.054206125923325743e-01 -2.505824573084717288e-01 2.557447166904547875e-01 3.866447455466446304e-01 4.310394853074245303e-01 2.418921564102146857e-02 -4.595579811273472343e-02 2.103919305709537474e-02 -8.776096270135171074e-02 2.528460932223368096e-01 2.055440473230333576e-01 5.238370664022619083e-01 -3.341080818703096034e-02 5.270636346174563391e-02 -6.887535815745977896e-02 -9.741570515873397562e-02 -4.457748810522058069e-01 -1.861010539882031189e-02 -2.263882096244001010e-02 9.795902135319332904e-02 -4.665501042394009645e-01 4.090569702431286481e-01 -1.107843254152696411e-01 -1.236195568698171127e-01 1.580088475327142972e-01 -1.487317615127767834e-01 7.316539452795360610e-03 2.148798153358025004e-03 5.993770113867663563e-01 3.779256417831377939e-03 3.961895614308623068e-03 2.982669975274998553e-01 -3.087148915956211548e-02 8.749471127606959220e-01 -2.417856375196697216e-01 -1.295915710222139139e-01 -1.905989315824797581e-01 2.798822452186128240e-01 -1.163857083173177043e-01 -1.978528499958531472e-01 -5.978970162991863180e-02 -9.002673728227587879e-02 1.912780271682676669e-01 -1.539037778058860717e-01 3.105783992407229119e-02 3.869310214813354021e-02 -2.660703830577174425e-02 2.425732874351847757e-03 -1.842953249469749671e-02 1.547970598462683200e-01 1.386968402968324077e-01 -2.243718496460868350e-01 -2.232180076697863058e-01 -6.003177836556800040e-01 2.184510321317979786e-02 -1.419805143614353005e-01 -2.422563778918742083e-01 -2.891585510165348705e-01 -3.913307382799458556e-01 -3.805918712951211758e-02 -7.939064810950709206e-02 -1.459158593977816776e-01 -2.131389288982032601e-02 -3.596378817152431212e-02 4.558890538554692951e-01 1.894828485242203847e-02 1.018869287298992780e-02 -1.423559840670259868e-01 4.927296533278187063e-01 -1.276360377501081778e-01 3.591456431450230913e-02 1.175042288831567999e-01 -4.498538584747978075e-01 1.571036016229780397e-01 -3.897565877113227939e-03 3.983338345724185547e-02 1.386208739028213233e-01 9.229539504307339437e-02 8.639766124953396353e-02 4.304196990675270007e-02
1.117308388079116532e-01 3.034241753957269902e-02 -4.200118189410086966e-01 9.280588555509591830e-02 -1.725441425621438221e-02 -3.251277252404189411e-01 1.071957388594149685e-01 -1.065018849139333090e+00 1.807003786861417216e-01 6.965731073539623008e-02 2.356155831625988684e-01 -2.801885218849282100e-01 3.212611146738182377e-01 4.576593561013437284e-01 5.097834355767548731e-01 2.840126241824640282e-02 -5.323677921706185950e-02 1.915222456122827807e-02 -1.019983182917091752e-01 2.972161298690182973e-01 2.462368829549018701e-01 6.071249355802094128e-01 -2.217924559266470919e-02 7.989953178628082797e-02 -8.075704787499066173e-02 -1.148650275816737593e-01 -5.323248586457125509e-01 -2.416408148849594900e-02 -2.673785333955565335e-02 9.790001994182503942e-02 -5.483154805872666460e-01 4.718245111601649944e-01 -1.056547068228684827e-01 -1.426486187976091780e-01 1.768446798568550082e-01 -1.683058626621807830e-01 8.904276101003289964e-03 1.696129842152899062e-03 7.094670165495190473e-01 5.419121368204884819e-03 5.619057213173220613e-03 3.501879966355668228e-01 -3.599137022908772271e-02 1.051043913316185074e+00 -2.997391657208530735e-01 -1.509325461629167087e-01 -2.132219264217843080e-01 3.238882599273432139e-01 -1.358465067685747651e-01 -2.287879897230835069e-01 -6.896765803074524082e-02 -1.020038789935261980e-01 2.249658927021279675e-01 -1.760999054230545091e-01 3.661881831371689711e-02 4.492211680293847764e-02 -3.261204311677121104e-02 3.373686501451213758e-03 -1.916946557141751065e-02 1.757670643041413794e-01 1.599361541471395476e-01 -2.649658216314401127e-01 -2.556968374458281623e-01 -6.977156329911047283e-01 8.451449944924161253e-03 -1.721977104425331251e-01 -3.050628528170279963e-01 -3.465591482802327095e-01 -4.709017218809207206e-01 -4.459305760372666433e-02 -9.226675251647800668e-02 -1.686248374665301752e-01 -2.389904203872788083e-02 -3.971959592191870447e-02 5.266370586119349939e-01 2.268233495603085015e-02 1.259063689041959103e-02 -1.688589820816056852e-01 5.783248096027268081e-01 -1.531825513074614176e-01 3.254384594522629487e-02 1.362555122078643322e-01 -5.073756888686302702e-01 1.778868154222102704e-01 -2.222671469786924054e-03 4.711946997137982790e-02 1.648398566068098314e-01 1.058163063216068372e-01 9.900075861673780786e-02 4.951696565584653986e-02
1.285549865992961782e-01 3.416530902842047912e-02 -4.903587894923953638e-01 1.024890330944044359e-01 -2.161050636796992691e-02 -3.757406890860956472e-01 1.219346985715815956e-01 -1.254306596532229534e+00 2.377619687670695925e-01 7.874221330423343546e-02 2.639435548176399249e-01 -3.078485829156569209e-01 3.930985054607053497e-01 5.288250109712598901e-01 5.911434006751717929e-01 3.314030379910741508e-02 -5.993875479333036355e-02 1.810925564256806244e-02 -1.164196722829737712e-01 3.412061661811315871e-01 2.871797192552061340e-01 6.873557771494689383e-01 -7.326692706321358273e-03 1.098296821184363420e-01 -9.237574638749189437e-02 -1.323483375772463999e-01 -6.151528355042289453e-01 -2.981605653589484983e-02 -3.074788817429556509e-02 9.719601803299010578e-02 -6.296768511679758928e-01 5.316340682220095371e-01 -9.581307859002585747e-02 -1.613726657075748028e-01 1.928655155312140879e-01 -1.873399548289428063e-01 1.031301960657967677e-02 8.974546113871737472e-04 8.175490222933513573e-01 7.248990533422926784e-03 7.527213038929806907e-03 3.997619954674442311e-01 -4.028527708927517881e-02 1.234074701182066081e+00 -3.636597122382880243e-01 -1.711325313783538526e-01 -2.329249229583455205e-01 3.650562688393195199e-01 -1.555613054897540537e-01 -2.592661338085512912e-01 -7.913061638386126306e-02 -1.133240207208553729e-01 2.587027617202815044e-01 -1.984070315965601461e-01 4.211079552868000203e-02 5.095413386681576368e-02 -3.765804751742081458e-02 4.258640361897485238e-03 -1.934840324029076311e-02 1.952940669665085283e-01 1.808404656498542595e-01 -3.053027945193594328e-01 -2.878206687839038880e-01 -7.919464554643645959e-01 -8.573192002128674286e-03 -2.048188882362264041e-01 -3.747533082995184173e-01 -4.060727941781304695e-01 -5.534487159240065735e-01 -5.146593106545166441e-02 -1.050238561034955442e-01 -1.903828167028696061e-01 -2.582018914770472379e-02 -4.236141012710267773e-02 5.938670617094538029e-01 2.606838360863671100e-02 1.500158058598519313e-02 -1.947829809633150611e-01 6.642739760800653315e-01 -1.793010711600755147e-01 2.632313010700780900e-02 1.548057697357010931e-01 -5.596435260872041351e-01 1.967380133457130031e-01 -1.847763928411867663e-04 5.435255815102706112e-02 1.909088403430387604e-01 1.183942248017089138e-01 1.108368471767958163e-01 5.485196137340965505e-02
1.461421264735521808e-01 3.804821411870564635e-02 -5.575727583761291850e-01 1.117081766595345305e-01 -2.615159505106679633e-02 -4.242646535108566264e-01 1.362086897121181084e-01 -1.451539328869777767e+00 3.008835809980058285e-01 8.702212043489128412e-02 2.907485269809303996e-01 -3.337416414300655720e-01 4.721138829428584982e-01 6.011147156910855438e-01 6.753123798230286079e-01 3.830533885489412899e-02 -6.592572525727932731e-02 1.796828565872274699e-02 -1.312150279735226910e-01 3.853342014143311123e-01 3.284945542475360414e-01 7.652825965889999971e-01 1.064985168934891313e-02 1.414218177333081694e-01 -1.040844496998129393e-01 -1.506396365947313409e-01 -6.940548102133536901e-01 -3.573703016556169232e-02 -3.457992753909158029e-02 9.547801495285136719e-02 -7.117382248410519807e-01 5.901606339930960399e-01 -8.161244829053383720e-02 -1.797976965617899825e-01 2.057673553997648452e-01 -2.055340371370673047e-01 1.143877169452631182e-02 -2.722300576803637277e-04 9.229690284402376488e-01 9.280863454912722382e-03 9.678363773379706353e-03 4.471979940755563820e-01 -4.398420850907230895e-02 1.423595476647541824e+00 -4.329912763295454270e-01 -1.902355263906906901e-01 -2.499779198860093143e-01 4.039192726391261368e-01 -1.756201036047817243e-01 -2.894962823669676166e-01 -9.013957629449297071e-02 -1.240681628561579458e-01 2.925766336095099174e-01 -2.208741567798833683e-01 4.761277182070373926e-02 5.682615323250130718e-02 -4.193805142523771012e-02 4.919595063555061085e-03 -1.899534696798487951e-02 2.131960675293437801e-01 2.013657761115952849e-01 -3.454847694320211660e-01 -3.198855014915150119e-01 -8.832802555063624661e-01 -2.867382272315807321e-02 -2.393420500205845625e-01 -4.513867433771969195e-01 -4.677124901274891111e-01 -6.393387205136820128e-01 -5.863580691502008613e-02 -1.176799592275305367e-01 -2.113947969526006054e-01 -2.731833250429875973e-02 -4.414123248912489583e-02 6.574750633039443404e-01 2.892143084842163647e-02 1.734952334686743966e-02 -2.199709809482070511e-01 7.506471522525033357e-01 -2.060315960056495477e-01 1.755841708617205191e-02 1.730760045050518114e-01 -6.073563693582846312e-01 2.140771972501747944e-01 2.204118384891315570e-03 6.165764822246311977e-02 2.169288247163580208e-01 1.301741502524016159e-01 1.218549284090593432e-01 5.926495755915287683e-02
1.375399999999999956e-01 9.914100000000000690e-02 -3.568370000000000153e-01 1.515970000000000095e-01 9.520900000000000196e-02 -3.309270000000000267e-01 1.454959999999999865e-01 8.441700000000000592e-02 -1.001380000000000048e-01 1.639180000000000081e-01 1.330439999999999956e-01 -9.053400000000000336e-02 1.263469999999999871e-01 1.145690000000000042e-01 -5.167159999999999531e-01 1.387220000000000120e-01 1.020869999999999972e-01 -5.228789999999999827e-01 1.461870000000000114e-01 8.539800000000000169e-02 -1.047700000000000020e-01 1.668600000000000083e-01 1.403600000000000125e-01 -1.236540000000000000e-01 1.282409999999999939e-01 1.176399999999999946e-01 -4.341130000000000266e-01 1.324940000000000007e-01 1.043410000000000032e-01 -4.472039999999999904e-01 1.182760000000000061e-01 1.263630000000000031e-01 -1.098849999999999966e-01 1.385679999999999967e-01 1.305459999999999954e-01 -9.454300000000000204e-02 -8.942000000000000295e-03 -7.734000000000000423e-03 4.494290000000000229e-01 -7.926000000000000753e-03 -1.092199999999999942e-02 4.440140000000000198e-01 -1.619710000000000039e-01 -9.987000000000000044e-02 -1.426299999999999964e-02 -1.347389999999999977e-01 -1.082169999999999938e-01 1.923300000000000010e-02 -1.337710000000000010e-01 -7.920599999999999863e-02 -5.780899999999999928e-02 -1.545330000000000037e-01 -1.080590000000000023e-01 -6.856099999999999695e-02 -1.316100000000000082e-02 -8.767000000000000487e-03 6.265810000000000546e-01 -1.156000000000000083e-02 -1.206499999999999934e-02 6.364279999999999937e-01 -1.394380000000000064e-01 -1.389759999999999884e-01 3.548799999999999871e-02 -1.592119999999999924e-01 -7.792599999999999527e-02 1.410999999999999928e-03 -1.188059999999999949e-01 -1.022679999999999978e-01 -2.265899999999999859e-02 -1.347710000000000019e-01 -1.041160000000000002e-01 -2.162499999999999839e-02 -1.132599999999999926e-02 -7.822000000000000827e-03 5.961140000000000327e-01 -1.062800000000000029e-02 -7.992000000000000839e-03 6.114950000000000108e-01 -1.148580000000000018e-01 -1.147839999999999971e-01 4.116399999999999920e-02 -1.279369999999999952e-01 -1.335109999999999908e-01 3.123300000000000035e-02 -1.325359999999999872e-01 -1.029199999999999976e-01 -3.553800000000000014e-02 -1.175780000000000020e-01 -1.080610000000000043e-01 -3.914700000000000124e-02
1.761429999999999940e-01 1.549780000000000046e-01 -1.925010000000000054e-01 1.381410000000000138e-01 3.751700000000000174e-02 -2.687939999999999774e-01 2.069699999999999873e-01 4.421599999999999836e-02 -7.110299999999999954e-02 2.025220000000000076e-01 1.572149999999999936e-01 -4.728299999999999864e-02 8.714700000000000224e-02 1.439680000000000126e-01 -5.258009999999999629e-01 1.320369999999999877e-01 6.262600000000000111e-02 -4.502260000000000151e-01 1.226379999999999970e-01 1.265689999999999871e-01 -1.090969999999999995e-01 1.815489999999999882e-01 2.351560000000000039e-01 -1.240529999999999966e-01 1.180090000000000028e-01 9.877199999999999869e-02 -3.980870000000000242e-01 1.281090000000000007e-01 8.917999999999999539e-02 -4.616379999999999928e-01 8.486899999999999999e-02 1.156419999999999948e-01 -1.033629999999999965e-01 1.743409999999999960e-01 1.405069999999999930e-01 -8.450100000000000666e-02 3.969999999999999571e-03 -2.121000000000000055e-03 3.357910000000000061e-01 -1.219100000000000045e-02 -1.613200000000000051e-02 3.916080000000000116e-01 -2.149359999999999882e-01 -1.030439999999999967e-01 -6.787700000000000677e-02 -1.901440000000000075e-01 -8.605999999999999761e-02 6.009999999999999717e-04 -1.840690000000000104e-01 -7.663599999999999579e-02 -1.411840000000000039e-01 -1.296769999999999867e-01 -1.097309999999999952e-01 -4.737199999999999744e-02 -1.804100000000000148e-02 -4.030999999999999861e-03 6.066599999999999770e-01 -1.140900000000000074e-02 -1.416000000000000071e-02 5.824610000000000065e-01 -1.134249999999999980e-01 -2.233239999999999947e-01 6.291099999999999470e-02 -1.695760000000000045e-01 -1.405119999999999980e-01 -1.310300000000000006e-02 -7.123799999999999577e-02 -5.584999999999999687e-02 -3.799999999999999906e-02 -1.331309999999999993e-01 -1.421659999999999868e-01 -3.677999999999999846e-03 -9.055999999999999814e-03 -1.907000000000000058e-03 5.651359999999999717e-01 -1.302299999999999985e-02 -1.403300000000000033e-02 5.791969999999999619e-01 -7.612700000000000022e-02 -1.192600000000000049e-01 3.266199999999999659e-02 -1.716209999999999958e-01 -1.294410000000000005e-01 1.271899999999999940e-02 -1.275310000000000055e-01 -7.227500000000000591e-02 1.206699999999999960e-02 -1.106720000000000065e-01 -9.525400000000000533e-02 -3.317300000000000110e-02
2.209319999999999895e-01 2.153670000000000029e-01 -2.554700000000000026e-02 1.248269999999999935e-01 -2.594199999999999978e-02 -1.984289999999999943e-01 2.662169999999999814e-01 4.761999999999999740e-03 -4.117099999999999926e-02 2.433410000000000017e-01 1.816149999999999987e-01 -4.076999999999999895e-03 4.762799999999999673e-02 1.718959999999999932e-01 -5.244490000000000540e-01 1.259319999999999884e-01 1.868300000000000169e-02 -3.698710000000000053e-01 9.656199999999999506e-02 1.654450000000000087e-01 -1.113859999999999989e-01 1.962579999999999880e-01 3.232700000000000018e-01 -1.197539999999999993e-01 1.077010000000000051e-01 7.865400000000000169e-02 -3.562089999999999979e-01 1.237749999999999961e-01 7.474699999999999400e-02 -4.694860000000000144e-01 5.036199999999999705e-02 1.035849999999999965e-01 -9.643500000000000683e-02 2.106740000000000002e-01 1.516319999999999890e-01 -7.335300000000000153e-02 1.687999999999999917e-02 2.484000000000000097e-03 2.243249999999999966e-01 -1.606099999999999889e-02 -2.131100000000000008e-02 3.349750000000000227e-01 -2.681580000000000075e-01 -1.062690000000000023e-01 -1.204820000000000058e-01 -2.448009999999999908e-01 -6.510499999999999621e-02 -1.990700000000000108e-02 -2.408180000000000043e-01 -7.315199999999999481e-02 -2.312980000000000036e-01 -1.055520000000000069e-01 -1.111930000000000002e-01 -2.732300000000000006e-02 -2.248999999999999957e-02 1.275000000000000092e-03 5.808860000000000134e-01 -1.128000000000000010e-02 -1.608499999999999860e-02 5.227450000000000152e-01 -8.537200000000000344e-02 -2.995789999999999842e-01 8.533999999999999919e-02 -1.797920000000000074e-01 -2.016340000000000077e-01 -3.027300000000000130e-02 -2.472099999999999992e-02 -7.755999999999999873e-03 -5.794599999999999751e-02 -1.317369999999999930e-01 -1.768639999999999934e-01 1.193899999999999996e-02 -6.865999999999999708e-03 4.034000000000000259e-03 5.283569999999999656e-01 -1.531899999999999928e-02 -2.009199999999999875e-02 5.418680000000000163e-01 -3.665299999999999808e-02 -1.235539999999999972e-01 2.453999999999999931e-02 -2.152149999999999896e-01 -1.253279999999999950e-01 -6.859999999999999779e-03 -1.226860000000000034e-01 -4.241799999999999737e-02 5.830500000000000266e-02 -1.040890000000000010e-01 -8.196000000000000507e-02 -2.699599999999999916e-02