6.182190000000000296e+00 1.298349999999999893e+00 7.934200000000000141e-01 2.837540000000000173e+00 4.909360000000000390e+00 5.813769999999999882e+00 3.756310000000000038e+00 1.686539999999999928e+00 8.383820000000000050e+00 1.967859999999999943e+00 2.339379999999999793e+00 2.091123999999999938e+01 3.541609999999999925e+00 5.939269999999999605e+00 1.405264000000000024e+01 3.941190000000000193e+00 2.600639999999999841e+00 3.483820000000000139e+00 -4.647000000000000020e-01 5.944880000000000386e+00 1.426914000000000016e+01 5.745540000000000092e+00 3.908809999999999896e+00 8.822939999999999117e+00 2.383220000000000116e+00 1.729619999999999935e+00 1.697103999999999857e+01 5.870669999999999611e+00 1.199040000000000106e+00 1.735854000000000141e+01 -7.096000000000000085e-01 2.066559999999999953e+00 4.542060000000000208e+00 -1.364509999999999890e+00 5.633619999999999628e+00 5.986909999999999954e+00 1.546610000000000040e+00 -9.100999999999999368e-02 1.292524000000000051e+01 -2.480170000000000208e+00 6.428119999999999834e+00 8.132089999999999819e+00 -4.119599999999999929e-01 6.074919999999999654e+00 1.694594000000000023e+01 1.586670000000000025e+00 4.790090000000000181e+00 1.316713999999999984e+01 5.009479999999999933e+00 -1.181999999999999995e-01 5.977899999999999991e+00 -3.503600000000000048e+00 6.274639999999999773e+00 4.401010000000000311e+00 5.521200000000000330e+00 2.134339999999999904e+00 1.975504000000000104e+01 -1.675070000000000059e+00 3.031530000000000058e+00 6.410790000000000433e+00 4.776769999999999960e+00 3.760100000000000109e-01 2.487439999999999873e+00 1.784890000000000088e+00 3.403700000000000170e+00 1.876864000000000132e+01 6.009700000000000042e-01 5.599699999999999678e-01 7.564300000000000468e-01 5.620420000000000194e+00 1.716110000000000024e+00 1.006367999999999974e+01 -4.817699999999999760e-01 1.292040000000000077e+00 1.550203999999999915e+01 4.224300000000000388e+00 3.230669999999999931e+00 1.583873999999999960e+01 -1.755919999999999925e+00 3.792050000000000143e+00 3.068229999999999791e+00 2.383750000000000036e+00 4.203369999999999607e+00 1.963289999999999980e+00 2.416700000000000070e+00 2.170380000000000198e+00 5.962710000000000399e+00 3.068680000000000074e+00 4.218449999999999811e+00 8.486779999999999546e+00
-1.306200000000000139e-01 5.778529999999999944e+00 3.787599999999999856e-01 6.648259999999999614e+00 1.628509999999999902e+00 7.381459999999999688e+00 2.484080000000000066e+00 2.510499999999999954e-01 8.266669999999999519e+00 1.421240000000000059e+00 6.514140000000000263e+00 1.570135999999999932e+01 1.352319999999999967e+00 7.445800000000000196e-01 1.858215999999999823e+01 2.540059999999999985e+00 2.919140000000000068e+00 2.090359999999999996e+00 1.982189999999999896e+00 2.951459999999999972e+00 1.247236000000000011e+01 3.219660000000000188e+00 6.551459999999999617e+00 1.132966000000000051e+01 -1.604740000000000055e+00 4.090810000000000279e+00 1.881876000000000104e+01 3.636769999999999836e+00 3.442039999999999988e+00 1.565245999999999960e+01 5.907740000000000435e+00 2.412240000000000162e+00 2.918620000000000214e+00 -3.169470000000000010e+00 6.255090000000000039e+00 4.829769999999999897e+00 4.973069999999999879e+00 7.148799999999999599e-01 9.418960000000000221e+00 2.409429999999999961e+00 4.416599999999999859e+00 1.056725999999999921e+01 5.132559999999999789e+00 2.063520000000000021e+00 1.770466000000000051e+01 1.999479999999999924e+00 3.606599999999999806e-01 1.080906000000000056e+01 1.484979999999999967e+00 1.991500000000000048e+00 6.535479999999999734e+00 -1.798659999999999926e+00 4.808099999999999596e+00 6.450210000000000221e+00 8.259100000000000330e-01 3.084169999999999856e+00 1.941146000000000171e+01 5.764560000000000350e+00 7.587500000000000355e-01 5.033150000000000013e+00 6.253699999999999815e-01 7.828100000000000058e-01 2.565589999999999815e+00 1.020820000000000061e+00 4.239480000000000359e+00 1.445396000000000036e+01 -2.520300000000000207e+00 5.605260000000000353e+00 2.068636000000000053e+01 4.047990000000000421e+00 1.819010000000000016e+00 1.364376000000000033e+01 2.833819999999999784e+00 5.368970000000000020e+00 1.734496000000000038e+01 -1.036040000000000072e+00 5.730310000000000237e+00 1.687966000000000122e+01 3.573319999999999830e+00 3.195450000000000124e+00 4.401139999999999830e+00 4.492469999999999963e+00 1.898339999999999916e+00 4.911300000000000110e-01 8.859000000000000208e-02 4.559079999999999799e+00 2.724880000000000191e+00 -2.751539999999999875e+00 6.366109999999999935e+00 1.319116000000000000e+01
2.293730000000000047e+00 3.003210000000000157e+00 2.038012000000000157e+01 -6.610200000000000520e-01 1.528229999999999977e+00 6.123199999999999754e+00 -3.523740000000000094e+00 6.269479999999999720e+00 1.074681999999999960e+01 6.188399999999999679e+00 9.350600000000000023e-01 1.958091999999999899e+01 -2.861870000000000136e+00 4.217990000000000350e+00 1.780001999999999995e+01 2.356219999999999981e+00 1.032010000000000094e+00 3.152499999999999858e+00 3.034720000000000084e+00 4.754850000000000243e+00 1.461832000000000065e+01 2.900920000000000165e+00 2.590359999999999996e+00 8.612370000000000303e+00 -5.292400000000000437e-01 6.099109999999999587e+00 1.397611999999999988e+01 2.545700000000000074e+00 1.135010000000000074e+00 1.707331999999999894e+01 2.042650000000000077e+00 5.958520000000000039e+00 2.769690000000000207e+00 2.990599999999999925e-01 5.435399999999999565e+00 6.244530000000000136e+00 1.715009999999999923e+00 5.569950000000000401e+00 1.259192000000000000e+01 4.078280000000000349e+00 5.151670000000000194e+00 8.422250000000000014e+00 4.971040000000000347e+00 1.550210000000000088e+00 1.725181999999999860e+01 -2.426239999999999952e+00 4.679739999999999789e+00 1.288582000000000072e+01 1.851020000000000110e+00 2.298859999999999904e+00 5.950040000000000440e+00 2.551639999999999908e+00 4.899140000000000050e+00 5.251520000000000188e+00 5.209240000000000315e+00 3.738879999999999981e+00 6.479000000000000037e-02 -1.646609999999999907e+00 3.892170000000000130e+00 6.047659999999999592e+00 -2.123530000000000140e+00 5.258750000000000036e+00 3.236720000000000041e+00 2.185839999999999783e+00 1.671990000000000087e+00 1.467772000000000077e+01 1.124649999999999928e+00 5.244480000000000253e+00 2.041131999999999991e+01 2.555449999999999999e+00 9.606099999999999639e-01 1.045271999999999935e+01 2.682350000000000012e+00 5.352009999999999934e+00 1.707051999999999836e+01 -9.123099999999999543e-01 5.074740000000000251e+00 1.662592000000000070e+01 1.191149999999999931e+00 2.917640000000000011e+00 1.768979999999999997e+00 1.286440000000000028e+00 7.377700000000000369e-01 1.929391999999999996e+01 4.969459999999999766e+00 1.829159999999999897e+00 3.362830000000000208e+00 4.916229999999999656e+00 7.213899999999999757e-01 7.745120000000000005e+00
2.718700000000000006e-01 5.261490000000000222e+00 5.409199999999999564e-01 -8.510100000000000442e-01 2.121129999999999960e+00 7.880519999999999747e+00 2.364570000000000061e+00 2.358000000000000027e-02 8.578490000000000393e+00 3.785429999999999851e+00 5.640899999999999803e-01 1.560908000000000051e+01 1.545109999999999983e+00 4.816900000000000071e-01 1.830628000000000100e+01 2.574629999999999974e+00 2.675180000000000113e+00 2.610510000000000108e+00 2.930169999999999941e+00 2.638290000000000024e+00 1.235427999999999926e+01 3.395989999999999842e+00 6.668099999999999916e+00 1.167908000000000079e+01 -7.500000000000000000e-01 3.728479999999999794e+00 1.805328000000000088e+01 2.997399999999999842e+00 4.195020000000000415e+00 1.632168000000000063e+01 6.308959999999999901e+00 2.142949999999999910e+00 3.385889999999999844e+00 -3.401390000000000136e+00 6.413369999999999571e+00 5.426779999999999937e+00 -1.047309999999999963e+00 2.516700000000000159e+00 1.051246000000000080e+01 2.961500000000000021e+00 4.403889999999999638e+00 1.030748999999999960e+01 4.814969999999999750e+00 2.386660000000000004e+00 1.746368000000000009e+01 2.525310000000000166e+00 2.447600000000000053e-01 1.119378000000000029e+01 1.608270000000000088e+00 1.564510000000000067e+00 6.839109999999999800e+00 -1.566089999999999982e+00 4.752080000000000304e+00 6.907849999999999824e+00 1.035120000000000040e+00 2.722160000000000135e+00 1.934217999999999904e+01 5.966140000000000221e+00 9.133200000000000207e-01 5.816959999999999908e+00 7.621799999999999686e-01 8.684600000000000097e-01 2.569869999999999877e+00 1.961000000000000076e+00 2.356219999999999981e+00 1.487157999999999980e+01 -1.932830000000000048e+00 5.384129999999999860e+00 2.004317999999999955e+01 5.321900000000000297e+00 3.489020000000000010e+00 1.338097999999999921e+01 1.162940000000000085e+00 5.835130000000000372e+00 1.759288000000000096e+01 -2.652530000000000054e+00 5.635169999999999568e+00 1.615127999999999986e+01 4.009570000000000078e+00 3.459529999999999994e+00 4.594549999999999912e+00 4.436410000000000409e+00 1.063059999999999894e+00 1.513319999999999999e+00 4.723499999999999921e-01 4.201369999999999827e+00 3.033630000000000049e+00 5.217699999999999783e+00 1.123019999999999907e+00 1.329428000000000054e+01
5.844300000000000050e-01 5.123770000000000380e+00 4.869700000000000140e-01 -1.190700000000000092e+00 2.232650000000000023e+00 7.369460000000000122e+00 -1.565790000000000015e+00 6.289699999999999847e+00 8.406650000000000844e+00 4.495499999999999829e+00 3.062900000000000067e-01 1.507333999999999996e+01 1.161359999999999948e+00 3.271399999999999864e-01 1.768723999999999918e+01 2.151390000000000136e+00 2.383700000000000152e+00 2.320679999999999854e+00 3.152190000000000047e+00 2.795080000000000009e+00 1.220703999999999922e+01 3.374150000000000205e+00 6.346499999999999808e+00 1.061794000000000082e+01 -9.913499999999999535e-01 3.853439999999999976e+00 1.714603999999999928e+01 3.025920000000000165e+00 3.479389999999999983e+00 1.601933999999999969e+01 5.618350000000000399e+00 2.078949999999999854e+00 3.025970000000000049e+00 -3.224349999999999827e+00 6.491500000000000270e+00 5.002530000000000143e+00 6.033430000000000071e+00 2.179180000000000117e+00 9.637109999999999843e+00 2.360720000000000152e+00 3.854760000000000186e+00 9.847060000000000812e+00 4.327469999999999928e+00 2.242340000000000000e+00 1.788383999999999929e+01 -1.405869999999999953e+00 6.346870000000000012e+00 1.101534000000000013e+01 1.666330000000000089e+00 1.692949999999999955e+00 6.766300000000000203e+00 -1.734779999999999989e+00 4.441519999999999690e+00 6.407440000000000246e+00 5.457199999999999829e-01 2.711530000000000218e+00 1.861273999999999873e+01 5.488579999999999792e+00 6.312299999999999578e-01 5.421140000000000292e+00 5.658199999999999896e-01 5.300899999999999501e-01 2.187230000000000008e+00 1.276810000000000000e+00 3.289989999999999970e+00 1.419734000000000052e+01 -1.898660000000000014e+00 5.234169999999999767e+00 1.946763999999999939e+01 5.390329999999999622e+00 2.884860000000000202e+00 1.381464000000000070e+01 1.656360000000000054e+00 5.675080000000000346e+00 1.723783999999999850e+01 -1.601730000000000098e+00 5.567980000000000373e+00 1.528843999999999959e+01 3.795129999999999892e+00 3.830400000000000027e+00 3.578860000000000152e+00 4.503250000000000419e+00 1.721260000000000012e+00 6.845200000000000173e-01 -9.155000000000000637e-02 4.034720000000000084e+00 3.058219999999999938e+00 6.539080000000000226e+00 7.394800000000000262e-01 1.317444000000000059e+01
6.316419999999999924e+00 9.098699999999999566e-01 7.758000000000000451e-01 2.988859999999999850e+00 4.865800000000000125e+00 5.892660000000000231e+00 3.590149999999999952e+00 1.360880000000000090e+00 8.433260000000000645e+00 2.582910000000000039e+00 2.645719999999999850e+00 1.042499999999999954e-01 3.684349999999999792e+00 6.162029999999999674e+00 1.430353999999999992e+01 3.947350000000000136e+00 2.579800000000000093e+00 3.299850000000000172e+00 -3.719899999999999873e-01 6.148299999999999876e+00 1.432053999999999938e+01 -2.266680000000000028e+00 4.080510000000000304e+00 9.282949999999999591e+00 2.055390000000000050e+00 1.895250000000000101e+00 1.684703999999999979e+01 5.689259999999999984e+00 1.701230000000000020e+00 1.745883999999999858e+01 -4.477300000000000169e-01 1.883270000000000000e+00 4.551759999999999806e+00 -1.543670000000000098e+00 6.149339999999999584e+00 5.821320000000000050e+00 1.626270000000000104e+00 2.247899999999999898e-01 1.322714000000000034e+01 1.810000000000000053e+00 -1.285699999999999898e-01 8.624959999999999738e+00 -2.939399999999999791e-01 6.528410000000000046e+00 1.710683999999999827e+01 1.548950000000000049e+00 4.639850000000000030e+00 1.381193999999999988e+01 1.143299999999999983e+00 6.761759999999999771e+00 6.116819999999999702e+00 -3.690640000000000143e+00 6.473200000000000287e+00 4.395299999999999763e+00 5.152239999999999931e+00 1.554259999999999975e+00 2.031393999999999878e+01 -1.741999999999999993e+00 3.367490000000000094e+00 6.446069999999999744e+00 4.118990000000000151e+00 4.900000000000000189e-02 2.738300000000000178e+00 1.908160000000000078e+00 3.464399999999999924e+00 1.881053999999999959e+01 5.828299999999999592e-01 8.464199999999999502e-01 1.193289999999999962e+00 5.465200000000000280e+00 1.924639999999999906e+00 1.038357000000000063e+01 -3.067199999999999926e-01 1.312929999999999930e+00 1.621364000000000161e+01 4.389170000000000016e+00 3.005510000000000126e+00 1.595024000000000086e+01 6.396020000000000039e+00 3.271209999999999951e+00 2.602939999999999809e+00 2.477819999999999911e+00 4.356189999999999785e+00 2.229659999999999975e+00 2.305730000000000057e+00 2.357889999999999819e+00 5.259949999999999903e+00 3.083639999999999937e+00 4.146510000000000140e+00 8.613939999999999486e+00
-1.237719999999999931e+00 6.111769999999999925e+00 2.326199999999999934e-01 -1.456939999999999902e+00 3.572639999999999816e+00 5.073129999999999917e+00 4.951209999999999667e+00 2.792030000000000012e+00 1.260993000000000031e+01 -6.663799999999999724e-01 1.577329999999999899e+00 1.956862999999999886e+01 -2.405800000000000161e+00 5.662490000000000023e+00 1.929882999999999882e+01 1.776010000000000089e+00 3.017139999999999933e+00 2.907399999999999984e+00 7.573699999999999877e-01 2.241220000000000212e+00 1.304712999999999923e+01 1.450809999999999933e+00 6.502399999999999736e+00 1.254293000000000013e+01 -9.977200000000000513e-01 3.713870000000000005e+00 1.623782999999999888e+01 3.053640000000000132e+00 5.177480000000000082e+00 1.631653000000000020e+01 6.594909999999999606e+00 1.226979999999999960e+00 2.257620000000000182e+00 3.819939999999999891e+00 5.066819999999999879e+00 5.285449999999999982e+00 6.748440000000000438e+00 1.707240000000000091e+00 1.103112999999999921e+01 1.628360000000000030e+00 4.180649999999999977e+00 1.139822999999999986e+01 5.904810000000000336e+00 1.972089999999999899e+00 1.738742999999999839e+01 3.143279999999999852e+00 7.530900000000000372e-01 1.297842999999999947e+01 1.468469999999999942e+00 3.348259999999999792e+00 5.527590000000000003e+00 -2.600049999999999972e+00 5.290949999999999598e+00 7.089640000000000164e+00 1.781190000000000051e+00 1.106430000000000025e+00 2.039332999999999885e+01 5.241089999999999804e+00 1.264329999999999954e+00 4.520410000000000039e+00 1.501219999999999999e+00 4.039099999999999913e-01 2.730570000000000164e+00 1.654139999999999944e+00 2.831510000000000193e+00 1.562453000000000003e+01 5.774060000000000414e+00 3.784320000000000128e+00 2.104892999999999859e+01 -2.237229999999999830e+00 4.554459999999999731e+00 1.419012999999999991e+01 3.044840000000000213e+00 5.588049999999999962e+00 1.881343000000000032e+01 -4.855400000000000271e-01 5.929219999999999935e+00 1.759312999999999860e+01 3.568350000000000133e+00 4.738290000000000113e+00 2.450930000000000053e+00 5.236480000000000246e+00 4.374799999999999800e-01 2.177503000000000100e+01 -7.704999999999999627e-01 3.842960000000000154e+00 2.524249999999999883e+00 6.692359999999999864e+00 3.494700000000000029e-01 1.457212999999999958e+01
6.003689999999999749e+00 3.170589999999999797e+00 8.845000000000000084e-02 1.110789999999999944e+00 5.026559999999999917e+00 6.223799999999999777e+00 2.856269999999999865e+00 3.288800000000000057e-01 8.887919999999999376e+00 1.872919999999999918e+00 3.156280000000000197e+00 2.120617000000000019e+01 -2.585210000000000008e+00 4.717810000000000059e+00 1.548096999999999923e+01 4.052459999999999951e+00 4.806199999999999584e+00 3.031899999999999817e+00 1.523239999999999927e+00 4.300069999999999837e+00 1.550976999999999961e+01 4.250200000000000422e+00 3.356209999999999916e+00 8.494220000000000326e+00 3.154889999999999972e+00 9.305900000000000283e-01 1.686407000000000167e+01 6.901729999999999698e+00 6.110999999999999766e-01 1.797877000000000081e+01 -1.013319999999999999e+00 3.612610000000000099e+00 3.352700000000000014e+00 -3.084769999999999790e+00 5.649799999999999933e+00 6.256009999999999849e+00 -3.788199999999999901e-01 5.472559999999999647e+00 1.441896999999999984e+01 4.846960000000000157e+00 5.828079999999999927e+00 8.912750000000000838e+00 4.548599999999999866e-01 5.951620000000000132e+00 1.808067000000000135e+01 3.692450000000000010e+00 4.255309999999999704e+00 1.427527000000000079e+01 3.360879999999999868e+00 3.694899999999999851e-01 6.281640000000000335e+00 2.995420000000000194e+00 6.769980000000000331e+00 5.418929999999999580e+00 -6.631299999999999972e-01 3.130419999999999980e+00 1.930996999999999986e+01 5.576570000000000249e+00 3.219840000000000035e+00 5.923750000000000071e+00 5.099070000000000213e+00 2.044420000000000126e+00 2.386629999999999807e+00 1.391820000000000057e+00 2.978880000000000194e+00 1.761226999999999876e+01 2.582900000000000196e-01 1.708800000000000097e+00 4.187899999999999956e-01 4.668260000000000076e+00 1.661180000000000101e+00 1.030258000000000074e+01 -3.116190000000000015e+00 6.026399999999999757e+00 1.745046999999999926e+01 5.692450000000000010e+00 1.485449999999999937e+00 1.587737000000000087e+01 -1.984439999999999982e+00 5.860570000000000057e+00 2.556989999999999874e+00 3.751459999999999795e+00 4.631809999999999761e+00 3.293499999999999761e-01 1.225249999999999950e+00 3.321779999999999955e+00 4.484149999999999636e+00 1.508490000000000109e+00 3.624810000000000088e+00 8.479129999999999612e+00
-1.355600000000000138e-01 5.904620000000000424e+00 3.107300000000000062e-01 6.663199999999999790e+00 1.643119999999999914e+00 7.329559999999999853e+00 2.446099999999999941e+00 1.911899999999999988e-01 8.309070000000000178e+00 1.480069999999999997e+00 6.554140000000000299e+00 1.580718000000000067e+01 1.387080000000000091e+00 7.521099999999999453e-01 1.859878000000000142e+01 2.505320000000000213e+00 2.859830000000000094e+00 2.172579999999999956e+00 2.035330000000000084e+00 2.989920000000000133e+00 1.257878000000000007e+01 3.237239999999999895e+00 6.624130000000000074e+00 1.139827999999999975e+01 -1.573890000000000011e+00 4.127930000000000099e+00 1.878468000000000160e+01 3.546079999999999899e+00 3.429199999999999804e+00 1.576047999999999938e+01 5.909040000000000070e+00 2.441120000000000179e+00 2.897800000000000153e+00 -3.137459999999999916e+00 6.336100000000000065e+00 4.868330000000000268e+00 4.987809999999999633e+00 7.529500000000000082e-01 9.535999999999999588e+00 2.497539999999999871e+00 4.476049999999999862e+00 1.060848000000000013e+01 5.173309999999999853e+00 1.961489999999999956e+00 1.777047999999999917e+01 2.021729999999999805e+00 2.629400000000000071e-01 1.080607999999999969e+01 1.556429999999999980e+00 1.935920000000000085e+00 6.605879999999999974e+00 -1.855799999999999894e+00 4.963530000000000442e+00 6.460119999999999862e+00 7.620500000000000052e-01 3.114759999999999973e+00 1.950148000000000081e+01 5.806709999999999816e+00 8.041399999999999659e-01 5.012279999999999625e+00 6.159900000000000375e-01 6.963500000000000245e-01 2.558670000000000222e+00 1.032780000000000031e+00 4.331249999999999822e+00 1.445348000000000077e+01 -2.451600000000000001e+00 5.652409999999999712e+00 2.073628000000000071e+01 4.093910000000000160e+00 1.842319999999999958e+00 1.361288000000000054e+01 2.833060000000000134e+00 5.357210000000000250e+00 1.752527999999999864e+01 -1.103280000000000038e+00 5.704570000000000363e+00 1.701137999999999906e+01 3.514180000000000081e+00 3.194150000000000045e+00 4.299669999999999881e+00 4.400120000000000253e+00 1.787800000000000056e+00 5.041299999999999670e-01 1.202399999999999997e-01 4.530160000000000409e+00 2.736209999999999809e+00 -2.710620000000000029e+00 6.371260000000000367e+00 1.330597999999999992e+01
-6.766999999999999404e-02 5.676370000000000360e+00 4.846799999999999997e-01 6.625709999999999766e+00 1.625539999999999985e+00 7.455259999999999998e+00 2.533749999999999947e+00 2.999700000000000144e-01 8.205550000000000566e+00 1.336489999999999956e+00 6.527199999999999669e+00 1.560908000000000051e+01 1.312300000000000022e+00 7.148799999999999599e-01 1.858477999999999852e+01 2.535299999999999887e+00 2.974899999999999878e+00 2.014759999999999884e+00 1.941980000000000040e+00 2.903399999999999981e+00 1.240118000000000009e+01 3.199170000000000069e+00 6.519929999999999559e+00 1.127477999999999980e+01 -1.617850000000000010e+00 4.044450000000000323e+00 1.888317999999999941e+01 3.734039999999999804e+00 3.472059999999999924e+00 1.559248000000000012e+01 5.937199999999999811e+00 2.394789999999999974e+00 2.947890000000000121e+00 -3.225140000000000118e+00 6.193249999999999922e+00 4.810559999999999725e+00 5.020179999999999865e+00 7.173899999999999721e-01 9.288619999999999877e+00 2.294340000000000046e+00 4.312339999999999840e+00 1.046927999999999948e+01 5.052539999999999587e+00 2.140629999999999811e+00 1.762658000000000058e+01 1.980189999999999895e+00 4.630000000000000226e-01 1.083008000000000060e+01 1.399340000000000028e+00 2.041329999999999867e+00 6.504100000000000215e+00 -1.726229999999999931e+00 4.670650000000000190e+00 6.496940000000000381e+00 8.997899999999999787e-01 3.085350000000000037e+00 1.938907999999999987e+01 5.738150000000000084e+00 6.748699999999999699e-01 5.093519999999999825e+00 6.508199999999999541e-01 8.914199999999999902e-01 2.525580000000000158e+00 9.898099999999999676e-01 4.126990000000000158e+00 1.449478000000000044e+01 -2.668039999999999967e+00 5.579399999999999693e+00 2.065607999999999933e+01 4.047180000000000000e+00 1.778170000000000028e+00 1.374217999999999940e+01 2.908599999999999852e+00 5.379830000000000112e+00 1.725207999999999942e+01 -9.965699999999999559e-01 5.823579999999999757e+00 1.678697999999999979e+01 3.684120000000000061e+00 3.239609999999999879e+00 4.490330000000000155e+00 4.591289999999999871e+00 1.991039999999999921e+00 5.058799999999999963e-01 6.805999999999999550e-02 4.581640000000000157e+00 2.701099999999999834e+00 -2.800100000000000033e+00 6.375200000000000422e+00 1.317688000000000059e+01
2.893759999999999888e+00 2.917499999999999982e+00 4.625799999999999912e-01 6.674839999999999662e+00 1.216369999999999951e+00 6.094470000000000276e+00 -1.785889999999999977e+00 3.864510000000000112e+00 7.844780000000000086e+00 6.012459999999999916e+00 1.747270000000000101e+00 1.977448000000000050e+01 4.446019999999999861e+00 4.093399999999999928e+00 1.713988000000000156e+01 3.191969999999999974e+00 2.902130000000000098e+00 4.259050000000000225e+00 1.913910000000000000e+00 4.954950000000000188e+00 1.466507999999999967e+01 -1.185200000000000004e-01 6.441069999999999851e+00 8.181139999999999191e+00 2.430099999999999927e+00 -2.748099999999999987e-01 1.487457999999999991e+01 4.410999999999999921e-01 2.072589999999999932e+00 1.663068000000000168e+01 5.225629999999999775e+00 2.601299999999999724e-01 2.507820000000000160e+00 2.665329999999999977e+00 3.742160000000000153e+00 7.880049999999999777e+00 4.356989999999999696e+00 -2.144600000000000117e-01 1.344458000000000020e+01 2.497829999999999995e+00 3.487999999999999989e+00 1.021879999999999988e+01 5.720830000000000304e+00 1.780540000000000012e+00 1.702108000000000132e+01 4.292159999999999975e+00 4.433239999999999625e+00 1.431258000000000052e+01 2.695019999999999971e+00 1.404900000000000038e+00 6.337720000000000020e+00 4.235079999999999956e+00 4.773889999999999745e+00 5.994369999999999976e+00 4.588790000000000369e+00 3.647850000000000037e+00 2.022058000000000177e+01 5.729400000000000048e-01 4.636689999999999756e+00 6.572700000000000209e+00 2.505079999999999973e+00 8.251899999999999791e-01 2.239360000000000017e+00 1.370060000000000056e+00 2.026440000000000019e+00 1.405697999999999936e+01 1.259849999999999914e+00 6.144300000000000317e+00 2.066948000000000008e+01 -1.946970000000000089e+00 5.891060000000000407e+00 9.898440000000000794e+00 1.643350000000000088e+00 4.418870000000000076e+00 1.721978000000000009e+01 -1.781069999999999931e+00 6.230330000000000368e+00 1.735597999999999885e+01 1.361010000000000053e+00 4.403459999999999930e+00 2.817489999999999828e+00 7.103300000000000169e-01 2.609780000000000211e+00 1.962038000000000082e+01 5.953570000000000029e+00 2.375640000000000196e+00 3.734539999999999971e+00 6.239569999999999617e+00 1.329649999999999999e+00 8.555740000000000123e+00
7.190000000000000210e-03 5.607859999999999623e+00 5.759999999999999565e-01 6.596110000000000362e+00 1.640179999999999971e+00 7.511400000000000077e+00 2.582139999999999880e+00 3.352700000000000125e-01 8.116390000000000882e+00 1.243179999999999952e+00 6.563019999999999854e+00 1.551642999999999972e+01 1.267220000000000013e+00 6.583400000000000363e-01 1.856903000000000148e+01 2.508189999999999920e+00 3.024659999999999904e+00 1.966609999999999969e+00 1.908760000000000012e+00 2.841790000000000038e+00 1.236472999999999978e+01 3.160330000000000084e+00 6.488900000000000112e+00 1.120433000000000057e+01 -1.601830000000000087e+00 3.996090000000000142e+00 1.893363000000000085e+01 3.820809999999999818e+00 3.528640000000000221e+00 1.556103000000000058e+01 5.979969999999999786e+00 2.378769999999999829e+00 2.983979999999999855e+00 -3.288609999999999811e+00 6.129550000000000054e+00 4.805049999999999599e+00 5.103180000000000049e+00 7.461400000000000254e-01 9.162729999999999819e+00 2.171050000000000146e+00 4.214109999999999800e+00 1.030925000000000047e+01 4.939759999999999707e+00 2.182100000000000151e+00 1.751733000000000118e+01 1.963689999999999936e+00 5.616499999999999826e-01 1.082432999999999979e+01 1.309679999999999955e+00 2.066300000000000026e+00 6.505429999999999602e+00 -1.649359999999999937e+00 4.577829999999999622e+00 6.578190000000000204e+00 9.691999999999999504e-01 3.122739999999999849e+00 1.939863000000000071e+01 5.721499999999999808e+00 5.616200000000000081e-01 5.172469999999999679e+00 6.891899999999999693e-01 1.005409999999999915e+00 2.457269999999999843e+00 9.535299999999999887e-01 3.984750000000000014e+00 1.454033000000000087e+01 -2.815789999999999793e+00 5.573339999999999961e+00 2.062133000000000038e+01 4.077020000000000088e+00 1.711430000000000007e+00 1.384473000000000020e+01 3.027000000000000135e+00 5.407189999999999941e+00 1.719573000000000107e+01 -1.004750000000000032e+00 5.942260000000000097e+00 1.674183000000000021e+01 3.815859999999999808e+00 3.318610000000000060e+00 4.516359999999999708e+00 4.678359999999999630e+00 2.047429999999999861e+00 5.543099999999999694e-01 6.593000000000000249e-02 4.576929999999999943e+00 2.714319999999999844e+00 -2.856990000000000141e+00 6.376900000000000013e+00 1.324362999999999957e+01
-1.812100000000000100e-01 5.766239999999999810e+00 6.036399999999999544e-01 -7.284800000000000164e-01 2.458520000000000039e+00 7.818660000000000387e+00 -1.319790000000000019e+00 6.750169999999999781e+00 8.614979999999999194e+00 3.850760000000000183e+00 3.775100000000000122e-01 1.560523000000000060e+01 1.474280000000000035e+00 5.267899999999999805e-01 1.867163000000000039e+01 2.590050000000000185e+00 2.398080000000000211e+00 2.924220000000000041e+00 2.852910000000000057e+00 2.789289999999999825e+00 1.204953000000000074e+01 7.156679999999999708e+00 9.597999999999999587e-02 1.172583000000000020e+01 -8.068899999999999961e-01 3.884110000000000174e+00 1.802712999999999965e+01 2.968370000000000175e+00 4.016600000000000392e+00 1.615842999999999918e+01 6.338700000000000223e+00 2.286700000000000177e+00 3.437059999999999782e+00 -3.248920000000000030e+00 5.982470000000000176e+00 5.379030000000000200e+00 -1.004380000000000051e+00 2.149459999999999926e+00 1.030382999999999960e+01 2.949329999999999785e+00 4.786430000000000184e+00 1.048698000000000086e+01 4.830940000000000012e+00 2.319830000000000059e+00 1.748612999999999928e+01 2.569249999999999812e+00 1.334899999999999975e-01 1.129273000000000060e+01 1.626579999999999915e+00 1.931610000000000049e+00 6.814869999999999983e+00 -1.532790000000000097e+00 4.744200000000000195e+00 7.032329999999999970e+00 1.157780000000000031e+00 2.790249999999999897e+00 1.988442999999999827e+01 6.218679999999999986e+00 6.794599999999999529e-01 5.756879999999999775e+00 5.776200000000000223e-01 3.422000000000000042e-01 2.808879999999999821e+00 1.381299999999999972e+00 2.592369999999999841e+00 1.457483000000000040e+01 -1.995020000000000016e+00 5.095390000000000086e+00 2.027132999999999896e+01 5.322919999999999874e+00 3.527149999999999785e+00 1.295932999999999957e+01 1.244390000000000107e+00 5.589920000000000222e+00 1.719243000000000166e+01 -2.522949999999999804e+00 5.980190000000000339e+00 1.650793000000000177e+01 4.435330000000000439e+00 3.321439999999999948e+00 4.950070000000000192e+00 4.718049999999999855e+00 1.285460000000000047e+00 1.694099999999999939e+00 3.782900000000000151e-01 4.316720000000000113e+00 2.659780000000000033e+00 5.240700000000000358e+00 1.067339999999999955e+00 1.355532999999999966e+01