-9.986335404999999810e+01
-9.862581256999999368e+01
-1.002857368699999938e+02
-9.930473593000000676e+01
-9.934384556999999916e+01
-9.878124991999999338e+01
-1.011171549999999968e+02
-9.860927653999999620e+01
-9.775105344000000684e+01
-9.954868172000000470e+01
-1.013138697400000012e+02
-9.965189383999999961e+01
-9.934943907999999624e+01
-9.939112289999999916e+01
-9.924055834000000687e+01
-1.020584480100000064e+02
-9.884373227000000384e+01
-9.909095455000000641e+01
-9.913408646000000601e+01
-9.884809950000000356e+01
-1.003709789699999959e+02
-1.000820094299999994e+02
-9.917953606999999749e+01
-9.981732732000000397e+01
-9.942540368999999600e+01
-9.873444976999999767e+01
-1.014525155599999948e+02
-9.858738409000000047e+01
-9.895198546999999678e+01
-1.013827965800000044e+02
