1.864670000000000050e+00 7.888300000000000312e-01 -1.592221000000000108e+00 9.947100000000000386e-02 -4.903100000000000236e-01 6.267490000000000006e-01 -1.290939000000000059e+00 -1.198355000000000059e+00 -7.810820000000000540e-01 -4.932299999999999879e-02 -1.217203999999999953e+00 1.843841999999999981e+00 1.169837999999999933e+00 3.415079999999999782e-01 1.047535000000000105e+00 -4.699900000000000189e-01 2.362990000000000090e-01 -5.189310000000000311e-01 3.309900000000000064e-01 -1.098099999999999944e-02 6.914789999999999548e-01 -6.278000000000000247e-02 8.443060000000000009e-01 5.295840000000000547e-01 1.498029999999999917e-01 -3.160020000000000051e-01 -6.644189999999999818e-01 -6.569289999999999852e-01 5.013589999999999991e-01 -2.049989999999999868e-01 2.245992000000000210e+00 -2.770465000000000177e+00 -2.462091000000000030e+00 4.271860000000000102e-01 1.607359999999999900e-01 -9.631359999999999921e-01 -1.747309999999999974e-01 -2.581680000000000086e-01 -4.840209999999999790e-01 6.573240000000000194e-01 8.824750000000000094e-01 1.244231000000000087e+00 1.964899999999999980e-01 8.966269999999999518e-01 -2.952290000000000192e-01 -9.714559999999999862e-01 -2.809269999999999823e-01 -4.469210000000000127e-01 -7.888619999999999521e-01 -1.141979999999999940e-01 1.701249999999999984e-01 -4.424890000000000212e-01 3.207200000000000051e-01 -1.612449999999999994e-01 -4.068900000000000294e-02 -2.396159999999999957e-01 6.400899999999999646e-02 -1.233082000000000011e+00 1.592943999999999916e+00 3.151667999999999914e+00 -1.068488000000000104e+00 -1.113663999999999987e+00 1.142376000000000058e+00 -4.830249999999999821e-01 8.812480000000000313e-01 -8.247659999999999991e-01 -4.914720000000000200e-01 6.008520000000000527e-01 -2.277889999999999915e-01 5.147580000000000489e-01 -3.947669999999999790e-01 6.976860000000000284e-01 2.364259999999999973e-01 -2.259690000000000032e-01 5.124210000000000154e-01 4.956100000000000089e-02 -5.758240000000000025e-01 -4.389500000000000346e-02 -2.588759999999999950e-01 2.602430000000000021e-01 -8.995039999999999702e-01 2.709340000000000082e-01 -2.461139999999999994e-01 2.142110000000000125e-01 1.350939999999999919e-01 5.665900000000000380e-01 -1.892752999999999908e+00 1.345919999999999894e-01 5.778290000000000370e-01 5.270869999999999722e-01
1.895561999999999969e+00 4.034920000000000173e-01 9.704180000000000028e-01 -5.607499999999999707e-01 1.989180000000000115e-01 8.692300000000000026e-02 4.611799999999999927e-02 -6.717330000000000245e-01 -1.267385999999999902e+00 -1.077514000000000083e+00 1.092875999999999959e+00 -7.043620000000000436e-01 -1.791840000000000099e-01 -6.100050000000000194e-01 -7.403870000000000173e-01 -1.182569999999999899e+00 -5.897670000000000412e-01 2.432020000000000015e-01 1.384360000000000035e-01 -8.558459999999999956e-01 1.778200000000000058e-01 -2.468100000000000016e-01 9.525550000000000406e-01 3.048400000000000068e-02 8.227210000000000356e-01 -6.497779999999999667e-01 -3.236840000000000273e-01 -1.867200000000000110e-02 7.696999999999999675e-02 4.958859999999999935e-01 3.727360000000000118e-01 1.427209999999999868e-01 1.128799999999999942e-01 -4.516640000000000099e-01 7.366300000000000625e-02 5.126640000000000086e-01 1.109345000000000026e+00 7.201490000000000391e-01 -6.296910000000000007e-01 -6.361470000000000180e-01 -1.293382999999999949e+00 -1.794229999999999992e+00 -1.276934999999999931e+00 -5.306760000000000366e-01 -1.021506000000000025e+00 1.367510000000000114e-01 5.860539999999999639e-01 2.812850000000000072e-01 -2.374499999999999944e-01 3.935999999999999915e-02 2.769610000000000127e-01 4.097640000000000171e-01 2.780290000000000261e-01 7.715459999999999541e-01 1.983320000000000083e-01 5.506959999999999633e-01 5.248680000000000012e-01 4.293600000000000194e-02 -8.652130000000000098e-01 4.862630000000000008e-01 3.962229999999999919e-01 4.408360000000000056e-01 -9.803429999999999644e-01 -2.298530000000000018e-01 -7.573779999999999957e-01 3.446989999999999776e-01 -1.827677999999999914e+00 1.048270000000000035e-01 -2.296700000000000130e-01 9.752960000000000518e-01 -1.015859999999999957e-01 8.414679999999999938e-01 1.516839000000000048e+00 -2.913450000000000206e-01 9.038370000000000015e-01 -4.566520000000000024e-01 1.100656000000000079e+00 -2.136639999999999928e-01 5.746210000000000484e-01 7.426369999999999916e-01 -5.147779999999999578e-01 -1.505720000000000114e-01 -2.270349999999999868e-01 5.608109999999999484e-01 2.467139999999999889e-01 -3.359639999999999849e-01 -3.463760000000000172e-01 -3.499439999999999773e-01 2.752660000000000107e-01 1.144060999999999995e+00
1.124481000000000064e+00 -5.631899999999999684e-01 -5.780969999999999720e-01 -2.601629999999999776e-01 -8.985940000000000039e-01 -7.530100000000000682e-02 -5.321300000000000335e-02 -5.222130000000000383e-01 3.897240000000000149e-01 -6.791859999999999564e-01 1.796599999999999864e-01 1.138580000000000009e-01 1.113910000000000039e-01 -1.507854999999999945e+00 1.339196999999999971e+00 6.288099999999999801e-01 -9.157999999999999474e-03 2.431609999999999883e-01 5.586799999999999544e-01 -4.779669999999999752e-01 -5.934289999999999843e-01 6.974500000000000144e-01 6.857379999999999587e-01 -1.222549000000000108e+00 -1.252240000000000020e-01 -1.767200000000000021e-02 1.927800000000000000e-02 -8.491030000000000522e-01 -1.282836000000000087e+00 2.613329999999999820e-01 8.218200000000000505e-02 1.453270000000000117e-01 3.107199999999999893e-02 -2.728490000000000082e-01 4.000159999999999827e-01 3.378010000000000179e-01 -7.127250000000000529e-01 3.109339999999999882e-01 1.770410000000000039e-01 -4.388679999999999803e-01 -1.144913999999999987e+00 3.210919999999999885e-01 1.423898000000000108e+00 5.087139999999999995e-01 -1.909190000000000054e-01 -4.077069999999999861e-01 -1.389519999999999922e-01 -9.153300000000000325e-02 -1.114519999999999955e-01 -6.369070000000000009e-01 2.708079999999999932e-01 5.945519999999999694e-01 9.430420000000000469e-01 -8.574190000000000422e-01 5.660330000000000084e-01 5.597000000000000412e-03 -6.041060000000000318e-01 -7.247040000000000148e-01 6.427749999999999853e-01 2.825570000000000026e-01 -3.558760000000000256e-01 7.559749999999999526e-01 -4.293069999999999942e-01 -2.389229999999999965e-01 9.316349999999999909e-01 -9.373420000000000085e-01 -1.016500000000000042e-01 1.680792999999999981e+00 2.437719999999999887e-01 -1.598000000000000028e-03 1.098000000000000018e-03 8.802720000000000544e-01 -1.082667999999999964e+00 6.543599999999999417e-02 -3.503200000000000203e-01 1.722267999999999910e+00 8.791550000000000198e-01 -7.096059999999999590e-01 -1.101107000000000058e+00 -1.454640000000000100e-01 1.779295999999999989e+00 -2.234500000000000028e-02 2.669739999999999891e-01 -1.030329999999999996e-01 4.480300000000000255e-02 -1.162479000000000040e+00 -2.105690000000000062e-01 -1.518899999999999938e-02 1.053299999999999931e-01 2.632700000000000040e-01
-9.472500000000000364e-02 2.437940000000000107e-01 1.542999999999999927e-02 2.216100000000000014e-02 1.023044000000000064e+00 9.015349999999999753e-01 3.500639999999999863e-01 -1.280629999999999935e+00 9.520060000000000189e-01 8.980019999999999669e-01 -2.194699999999999984e-01 2.433539999999999870e-01 -7.932799999999999574e-02 -5.550640000000000018e-01 -1.314539999999999875e-01 2.235070000000000112e-01 -3.529820000000000180e-01 1.895360000000000100e-01 9.335499999999999354e-02 8.411809999999999565e-01 -9.205090000000000217e-01 1.928860000000000019e-01 4.872639999999999749e-01 -9.501899999999999791e-01 -1.565053999999999945e+00 1.476753999999999900e+00 -5.391240000000000476e-01 6.757299999999999418e-02 2.180179999999999896e-01 9.373939999999999495e-01 -1.274379999999999957e-01 2.852259999999999796e-01 -4.258060000000000178e-01 2.148059999999999969e-01 -9.452049999999999619e-01 -1.067982999999999905e+00 6.729999999999999871e-02 -1.018318999999999974e+00 -8.666049999999999587e-01 -2.555589999999999806e-01 2.715960000000000041e-01 7.991509999999999447e-01 -6.491099999999999648e-01 8.211100000000000343e-02 5.350099999999999995e-02 -4.239470000000000183e-01 -4.107219999999999760e-01 -1.371610000000000051e-01 1.557489999999999986e-01 1.594184999999999963e+00 -4.121699999999999808e-01 1.218189999999999967e-01 2.294390000000000041e-01 5.690920000000000423e-01 1.246288999999999980e+00 -5.563449999999999784e-01 1.153365999999999891e+00 -5.504550000000000276e-01 -8.925720000000000320e-01 -1.532840000000000036e-01 -6.766750000000000265e-01 -1.894090999999999969e+00 8.509170000000000345e-01 -1.185278000000000054e+00 5.183000000000000107e-03 -5.937080000000000135e-01 1.843589999999999951e-01 -5.196950000000000180e-01 -3.254100000000000048e-02 2.164389999999999925e-01 1.970230000000000037e-01 3.006229999999999736e-01 -1.227919999999999984e-01 -8.629320000000000324e-01 -8.481659999999999755e-01 1.049820999999999893e+00 1.048645999999999967e+00 -1.310739999999999961e-01 6.642970000000000264e-01 5.960929999999999840e-01 -1.771770000000000012e-01 4.032529999999999726e-01 8.046670000000000211e-01 1.909260000000000124e-01 -7.118109999999999715e-01 9.674779999999999491e-01 -1.781119999999999925e-01 2.704929999999999835e-01 -8.636740000000000528e-01 4.082330000000000125e-01
-3.124549999999999828e-01 5.948949999999999516e-01 4.421499999999999736e-02 8.055529999999999635e-01 -9.861419999999999630e-01 -2.933460000000000178e+00 2.602309999999999901e-01 -6.503919999999999702e-01 -2.412509999999999932e-01 6.522499999999999964e-01 3.713099999999999734e-02 8.483200000000000462e-02 -5.345889999999999809e-01 7.101880000000000415e-01 -3.829759999999999831e-01 3.819960000000000022e-01 1.002148000000000039e+00 -1.245600000000000041e-01 -7.942970000000000308e-01 2.845299999999999913e-02 -3.113859999999999961e-01 -7.627939999999999721e-01 -4.936600000000000016e-02 3.104700000000000168e-02 -1.138935000000000031e+00 3.879110000000000058e-01 1.788500000000000090e-01 -3.101349999999999940e-01 6.202649999999999553e-01 8.615530000000000133e-01 7.582330000000000458e-01 -4.928699999999999748e-02 -3.288690000000000224e-01 3.504990000000000050e-01 -4.021879999999999900e-01 -8.159210000000000074e-01 -2.047700000000000076e-01 -8.214519999999999600e-01 3.508059999999999956e+00 7.632989999999999498e-01 8.936060000000000114e-01 1.018142000000000102e+00 -2.355700000000000016e-01 2.597430000000000017e-01 -1.097885999999999918e+00 -1.517910000000000093e-01 1.743949999999999945e-01 -3.927760000000000140e-01 -3.695149999999999824e-01 3.061329999999999885e-01 -2.699619999999999798e-01 -6.316099999999999492e-02 2.019798999999999900e+00 2.413750000000000062e-01 1.432168000000000108e+00 -1.300267999999999979e+00 7.698279999999999568e-01 -2.725090000000000012e-01 -2.375329999999999941e-01 -7.617000000000000159e-02 -4.963960000000000039e-01 -1.410122000000000098e+00 8.045189999999999841e-01 4.802919999999999967e-01 -1.482590000000000019e-01 -7.117299999999999738e-01 2.302599999999999925e-01 -5.180660000000000265e-01 1.672700000000000020e-01 -3.852389999999999981e-01 -4.388899999999999746e-02 -6.243680000000000341e-01 1.298607000000000067e+00 -2.746500000000000052e-01 -1.504800000000000026e-01 -8.967129999999999823e-01 3.018029999999999879e-01 1.827999999999999981e-03 -4.016080000000000205e-01 4.105429999999999913e-01 5.788999999999999702e-01 -6.320590000000000375e-01 -8.219189999999999552e-01 3.768469999999999875e-01 7.277329999999999632e-01 5.411589999999999456e-01 -4.408670000000000089e-01 -1.785859999999999947e-01 -5.746400000000000396e-01 2.353949999999999931e-01
-2.196839999999999904e-01 2.794490000000000030e-01 1.023057000000000105e+00 -4.255459999999999798e-01 -1.877769999999999995e-01 1.163933000000000106e+00 3.089331000000000049e+00 2.734858000000000011e+00 1.596480000000000121e-01 -1.478804999999999925e+00 3.760049999999999781e-01 -2.989129999999999843e-01 2.356280000000000041e-01 2.776899999999999855e-02 7.866370000000000307e-01 8.462319999999999842e-01 -6.345009999999999817e-01 -6.872719999999999940e-01 -1.410119999999999985e-01 3.857099999999999973e-01 1.636838999999999933e+00 -7.876100000000000323e-01 4.257310000000000261e-01 -1.435872000000000037e+00 1.710541000000000089e+00 -3.588540000000000063e-01 7.912449999999999761e-01 2.523520000000000207e-01 -1.539177999999999935e+00 1.594691000000000081e+00 -6.443330000000000446e-01 1.949429000000000078e+00 -4.733289999999999997e-01 1.114325999999999928e+00 -6.831209999999999782e-01 6.053610000000000380e-01 -3.678679999999999728e-01 -1.821820000000000106e-01 -4.278290000000000148e-01 -2.392990000000000173e+00 -2.386524000000000090e+00 4.809900000000000286e-02 -1.407680000000000042e-01 4.678399999999999781e-01 -7.969209999999999905e-01 8.463730000000000420e-01 2.401400000000000062e-02 -3.785350000000000104e-01 -9.828989999999999672e-01 5.657529999999999504e-01 1.766749999999999987e-01 -5.614000000000000240e-02 -1.598789999999999933e+00 -2.648139999999999938e-01 4.478300000000000058e-01 -6.590899999999999537e-02 -6.625149999999999650e-01 -1.300840000000000052e-01 7.863280000000000269e-01 2.665879999999999916e-01 4.426340000000000274e-01 2.694110000000000116e-01 -1.046499000000000068e+00 3.249000000000000152e-03 -1.463309999999999889e-01 1.192781000000000091e+00 5.497779999999999889e-01 -1.070900000000000046e-01 -2.887319999999999887e-01 6.802700000000000413e-02 -7.937539999999999596e-01 2.995249999999999857e-01 -1.165465999999999891e+00 -7.774680000000000479e-01 -8.550290000000000390e-01 -1.196730000000000071e+00 1.672814999999999941e+00 -1.946992999999999974e+00 4.893540000000000112e-01 -4.511109999999999842e-01 7.625709999999999988e-01 -2.211879999999999957e-01 1.076899999999999941e-01 -1.110600999999999949e+00 -5.469089999999999785e-01 8.971999999999999420e-02 9.309150000000000480e-01 8.023789999999999534e-01 -2.499300000000000133e-01 -7.647129999999999761e-01
2.816540000000000155e-01 2.713599999999999901e-01 1.477141999999999955e+00 8.242709999999999759e-01 -3.678910000000000236e-01 6.627490000000000325e-01 -8.301089999999999858e-01 -8.028110000000000523e-01 -8.323200000000000043e-02 -8.545399999999999663e-01 -9.526600000000000346e-02 5.672300000000000259e-02 1.113220000000000043e-01 -1.438840000000000119e-01 -1.320114999999999927e+00 -1.190350000000000019e-01 -2.680890000000000217e-01 5.649220000000000352e-01 8.480600000000000638e-02 2.012510000000000132e-01 -2.086780000000000024e-01 2.252889999999999893e-01 -6.601879999999999971e-01 -1.025686000000000098e+00 2.015217999999999954e+00 1.546594999999999942e+00 -7.490900000000000336e-02 -4.833029999999999826e-01 -6.190699999999999675e-02 -1.276825000000000099e+00 -1.082209999999999978e-01 -6.580279999999999463e-01 -1.638469999999999926e-01 -2.152849999999999930e+00 -3.979440000000000199e-01 -1.627126999999999990e+00 -1.201860000000000012e-01 -3.048009999999999886e-01 7.566190000000000415e-01 2.909720000000000084e-01 1.198240000000000000e-01 2.361640000000000128e-01 -8.827260000000000106e-01 -1.659424999999999928e+00 1.637283000000000044e+00 2.974649999999999794e-01 6.379120000000000346e-01 -5.611700000000000021e-02 -5.157199999999999979e-02 2.402749999999999886e-01 3.053000000000000158e-01 8.499790000000000401e-01 -5.153330000000000410e-01 -4.618680000000000008e-01 -1.559339999999999893e-01 5.229430000000000467e-01 -7.484799999999999787e-02 5.685040000000000093e-01 2.559560000000000168e-01 2.184290000000000120e-01 -3.589950000000000085e-01 1.260370000000000101e-01 -8.405740000000000434e-01 -4.483019999999999783e-01 5.203189999999999760e-01 -1.251700000000000035e-02 5.937379999999999880e-01 7.382500000000000173e-02 4.066640000000000255e-01 -5.916430000000000300e-01 9.741969999999999796e-01 -1.594820000000000126e-01 -3.798800000000000093e-02 8.089799999999999769e-02 2.079429999999999890e-01 -2.512440000000000229e-01 -3.179009999999999891e-01 -3.437749999999999972e-01 3.253900000000000126e-01 4.264479999999999937e-01 8.485390000000000432e-01 2.501940000000000275e-01 4.527500000000000274e-02 4.181770000000000209e-01 7.262299999999999311e-02 3.789710000000000023e-01 -7.427460000000000173e-01 6.552240000000000286e-01 -1.686159999999999881e-01 6.756919999999999593e-01
2.105660000000000032e-01 -7.244800000000000129e-01 7.509770000000000056e-01 -8.992999999999999258e-03 1.342511000000000010e+00 1.511044999999999972e+00 1.527679999999999871e-01 7.890700000000000491e-02 7.456200000000000327e-02 -5.968470000000000164e-01 -2.094689999999999885e-01 -6.333929999999999838e-01 1.140219000000000094e+00 -1.214450000000000029e+00 -1.069100000000000085e-02 -9.640790000000000193e-01 -8.041270000000000362e-01 4.607910000000000061e-01 2.118690000000000018e-01 6.155899999999999705e-01 3.205620000000000136e-01 -4.676960000000000006e-01 -1.132640000000000036e-01 -4.669300000000000117e-01 3.694100000000000161e-02 -9.272900000000000587e-02 2.841119999999999757e-01 -2.373190000000000022e-01 -3.865190000000000015e-01 -7.677799999999999903e-02 -7.092349999999999488e-01 -7.825069999999999526e-01 -1.261500000000000121e-01 4.300910000000000011e-01 1.484129000000000032e+00 1.214530000000000054e-01 -6.575819999999999999e-01 3.868190000000000239e-01 -7.864790000000000392e-01 3.797420000000000240e-01 1.178763000000000005e+00 5.399690000000000323e-01 8.783499999999999641e-01 5.721699999999999564e-01 8.020720000000000072e-01 -1.389326000000000061e+00 -4.354040000000000132e-01 -2.057907999999999848e+00 -4.325510000000000188e-01 -1.336557999999999913e+00 6.571499999999999564e-02 4.526819999999999733e-01 -4.783709999999999907e-01 -7.901420000000000110e-01 -8.027320000000000011e-01 1.012949999999999962e-01 -6.255140000000000144e-01 -1.029999999999999943e-01 -4.833350000000000146e-01 1.571110000000000007e-01 7.633309999999999818e-01 7.567180000000000017e-01 3.545119999999999938e-01 1.479238000000000053e+00 -1.259880000000000111e+00 -1.204989999999999950e-01 -2.176200000000000079e-01 -7.585049999999999848e-01 1.223875999999999964e+00 -5.374780000000000113e-01 -8.710040000000000004e-01 -1.382069999999999965e-01 -1.420399999999999996e-01 1.455780000000000074e+00 1.863974000000000020e+00 -2.186069999999999958e-01 1.077712000000000003e+00 -4.267139999999999822e-01 7.906079999999999774e-01 4.454910000000000259e-01 -1.340610000000000135e-01 -5.399880000000000235e-01 1.502836999999999978e+00 -3.744250000000000078e-01 3.848460000000000214e-01 -1.178789000000000087e+00 -1.427432000000000034e+00 7.138430000000000053e-01 1.306670000000000054e-01 -3.354090000000000127e-01
2.490066999999999808e+00 -1.581230000000000135e-01 1.599413999999999891e+00 -4.463389999999999858e-01 2.320740000000000025e-01 5.664820000000000411e-01 2.586550000000000238e-01 -5.300749999999999629e-01 -9.359319999999999862e-01 -7.821069999999999967e-01 9.086410000000000320e-01 -5.075600000000000112e-01 -4.690819999999999990e-01 -1.683360000000000134e-01 -3.819359999999999977e-01 -1.961858000000000102e+00 -8.418740000000000112e-01 -1.267365999999999993e+00 2.782430000000000181e-01 -6.078059999999999574e-01 -6.591139999999999777e-01 1.634559999999999902e-01 9.818369999999999598e-01 4.201670000000000127e-01 1.401080000000000103e-01 -1.776628000000000096e+00 6.938659999999999828e-01 1.696439999999999892e-01 -9.411500000000000421e-02 1.098549999999999943e-01 4.823350000000000137e-01 1.716050000000000075e-01 8.590399999999999425e-02 -7.415659999999999474e-01 6.810629999999999740e-01 9.386999999999999511e-03 1.038594999999999935e+00 6.911169999999999813e-01 -9.173200000000000243e-01 -7.927290000000000170e-01 -1.796267999999999976e+00 -1.308699000000000057e+00 -1.175065999999999944e+00 -2.138400000000000023e-02 -7.398470000000000324e-01 9.780600000000000405e-02 5.713719999999999910e-01 6.340329999999999577e-01 -5.745649999999999924e-01 4.840690000000000270e-01 -5.176000000000000045e-03 7.649540000000000228e-01 -8.707019999999999760e-01 1.009493999999999891e+00 4.343460000000000099e-01 2.645899999999999988e-02 4.648590000000000222e-01 -3.334000000000000158e-02 -8.991620000000000168e-01 4.543809999999999794e-01 3.128219999999999890e-01 5.553500000000000103e-01 -1.032210999999999990e+00 -3.747880000000000100e-01 -4.996260000000000145e-01 7.293659999999999588e-01 -2.523271999999999959e+00 -2.589790000000000147e-01 -5.240810000000000191e-01 9.366309999999999913e-01 4.420199999999999824e-02 1.276837999999999917e+00 1.187386000000000053e+00 -2.813039999999999985e-01 5.669140000000000290e-01 1.831299999999999872e-01 2.012261000000000077e+00 -1.653510999999999953e+00 1.447461000000000109e+00 8.603920000000000456e-01 1.111612000000000045e+00 1.543579999999999952e-01 3.397350000000000092e-01 4.518829999999999791e-01 4.684699999999999975e-02 -2.021310000000000051e-01 -8.122989999999999933e-01 -7.121290000000000120e-01 4.463349999999999818e-01 5.605970000000000120e-01
3.265810000000000102e-01 9.380880000000000329e-01 -6.826889999999999903e-01 -2.764320000000000110e-01 3.904960000000000098e-01 -6.300350000000000117e-01 -1.973439999999999916e-01 -7.123500000000000387e-01 -1.065415999999999919e+00 -4.711679999999999757e-01 4.814729999999999843e-01 -1.855269999999999975e-01 -1.107979999999999937e-01 -7.219069999999999654e-01 -8.135200000000000209e-01 -6.044979999999999798e-01 -5.236459999999999448e-01 9.090789999999999704e-01 4.143299999999999761e-02 -7.546500000000000430e-01 8.915419999999999456e-01 -5.737360000000000237e-01 -4.457900000000000057e-02 -3.573379999999999890e-01 1.039924000000000071e+00 -2.147989999999999899e-01 -6.438880000000000159e-01 -2.712490000000000179e-01 4.707210000000000005e-01 8.770710000000000450e-01 1.563029999999999975e-01 -1.672799999999999981e-02 2.273620000000000085e-01 -1.731109999999999871e-01 -2.438420000000000032e-01 5.396130000000000093e-01 8.565709999999999713e-01 5.110040000000000138e-01 7.195200000000000207e-02 -7.798499999999999877e-02 2.695099999999999926e-02 -1.461224999999999996e+00 -9.571749999999999980e-01 -6.345119999999999649e-01 -8.538360000000000394e-01 3.648099999999999954e-02 3.403200000000000114e-01 -1.002109999999999945e-01 2.392000000000000029e-02 -2.801219999999999821e-01 4.425850000000000062e-01 1.172239999999999949e-01 9.981360000000000232e-01 4.858060000000000156e-01 -6.277599999999999847e-02 7.406979999999999675e-01 4.581569999999999809e-01 8.759100000000000219e-02 -6.305020000000000069e-01 2.345730000000000037e-01 3.040169999999999817e-01 8.641400000000000470e-02 -4.123829999999999996e-01 8.964999999999999358e-02 -7.453589999999999938e-01 2.583099999999999979e-02 -1.588229999999999920e-01 2.448440000000000061e-01 -3.929000000000000201e-03 8.290619999999999656e-01 -2.514739999999999753e-01 3.090700000000000044e-02 9.496149999999999869e-01 3.064669999999999894e-01 2.650730000000000031e-01 -8.948059999999999903e-01 3.996020000000000127e-01 5.820990000000000331e-01 1.416789999999999994e-01 7.554969999999999741e-01 -1.387769000000000030e+00 -3.203210000000000224e-01 -3.981439999999999979e-01 6.514889999999999848e-01 4.428940000000000099e-01 -6.711200000000000498e-01 8.608000000000000096e-01 -2.927250000000000130e-01 1.530229999999999924e-01 1.043827000000000060e+00
-1.198990000000000056e-01 -3.751340000000000230e-01 1.036324999999999941e+00 7.519719999999999738e-01 -5.528370000000000228e-01 -1.309163999999999994e+00 -1.483309999999999906e-01 9.284930000000000128e-01 1.108757999999999910e+00 6.050050000000000150e-01 -2.431721000000000021e+00 1.468500000000000083e-01 -6.137380000000000058e-01 2.919820000000000193e-01 -4.181030000000000024e-01 -2.984399999999999831e-01 -1.868229999999999891e-01 -8.770000000000000018e-01 -9.622760000000000202e-01 9.130800000000000027e-02 -2.683989999999999987e-01 -2.019539999999999946e-01 1.605911000000000088e+00 8.992200000000000193e-01 -1.423556000000000044e+00 -1.850670000000000093e-01 -2.378840000000000121e-01 1.620733999999999897e+00 1.059540000000000065e-01 -4.848549999999999804e-01 -5.464909999999999490e-01 -1.095901000000000014e+00 -1.618192999999999993e+00 -1.484469999999999956e-01 -5.772110000000000296e-01 -7.981219999999999981e-01 1.587771000000000043e+00 -3.727599999999999802e-01 -8.574319999999999720e-01 1.812010000000000010e-01 -2.292399999999999993e-02 1.072683000000000053e+00 -8.821480000000000432e-01 -6.435530000000000417e-01 2.952040000000000219e-01 1.575368000000000102e+00 8.669399999999999329e-02 -4.304800000000000293e-02 -6.678629999999999844e-01 -1.517060000000000075e-01 4.797600000000000198e-01 6.851799999999999558e-02 6.757919999999999483e-01 1.187620000000000064e-01 -1.255090999999999957e+00 1.616130000000000067e+00 5.840340000000000531e-01 -5.444539999999999935e-01 -4.015279999999999960e-01 -8.385359999999999481e-01 8.840510000000000312e-01 9.451779999999999626e-01 1.935250000000000026e-01 -6.993850000000000344e-01 1.376179999999999903e-01 7.382670000000000066e-01 3.070930000000000049e-01 1.047028000000000070e+00 4.405789999999999984e-01 4.978380000000000027e-01 -8.180490000000000261e-01 -1.290521999999999947e+00 4.075969999999999871e-01 2.785409999999999831e-01 1.717399999999999829e-02 -2.910409999999999942e-01 4.773229999999999973e-01 9.689830000000000387e-01 8.734539999999999527e-01 -3.195359999999999867e-01 1.349599999999999966e-01 -4.868190000000000017e-01 -1.335220000000000018e-01 -5.156319999999999792e-01 3.227019999999999889e-01 1.485460000000000114e-01 5.574829999999999508e-01 -3.933690000000000242e-01 -1.682269999999999877e-01 7.643250000000000322e-01
-2.661160000000000192e-01 1.439346000000000014e+00 -2.121539999999999981e+00 6.744660000000000100e-01 1.013104000000000005e+00 -1.827509999999999968e+00 -3.233969999999999900e-01 -7.045949999999999713e-01 -5.995070000000000121e-01 4.569690000000000141e-01 -4.847980000000000067e-01 5.333149999999999835e-01 -2.233350000000000057e-01 -2.707010000000000249e-01 -6.489530000000000021e-01 -1.810080000000000022e-01 -4.688220000000000165e-01 8.839200000000000390e-01 -2.669600000000000098e-02 -9.246200000000000252e-02 7.359409999999999563e-01 -2.139399999999999913e-01 -7.077710000000000390e-01 -1.417299999999999949e-01 7.387890000000000290e-01 -3.443410000000000082e-01 -7.150539999999999674e-01 -4.826289999999999747e-01 7.002969999999999473e-01 5.716020000000000545e-01 -1.709099999999999855e-02 -1.412700000000000067e-01 2.700620000000000243e-01 1.333860000000000046e-01 -2.190620000000000067e-01 3.109970000000000234e-01 -2.737510000000000221e-01 -1.515269999999999950e-01 1.368389999999999995e+00 2.629070000000000018e-01 4.879189999999999916e-01 -3.526520000000000210e-01 -2.089900000000000091e-01 -4.249120000000000119e-01 1.590899999999999953e-02 -2.379590000000000038e-01 -2.069370000000000098e-01 -3.033370000000000233e-01 3.123059999999999725e-01 -4.071710000000000051e-01 3.800009999999999777e-01 -3.674000000000000182e-03 1.241314000000000028e+00 3.595450000000000035e-01 -2.384189999999999920e-01 4.652899999999999814e-01 2.674259999999999970e-01 -1.727100000000000163e-02 -2.788109999999999755e-01 -1.049500000000000016e-01 7.415299999999999669e-02 -4.255120000000000013e-01 1.996340000000000059e-01 4.170119999999999938e-01 -3.854609999999999981e-01 -8.095900000000000318e-02 6.534689999999999666e-01 7.950899999999999634e-02 -1.498700000000000032e-02 4.508840000000000070e-01 9.479899999999999438e-02 -9.194210000000000438e-01 6.317699999999999705e-02 9.105670000000000153e-01 -2.565629999999999855e-01 -9.812100000000000266e-01 -1.772009999999999974e-01 7.966539999999999733e-01 -4.192400000000000293e-02 6.504739999999999966e-01 -1.534154000000000018e+00 -4.655920000000000059e-01 -4.195090000000000208e-01 6.331219999999999626e-01 5.206840000000000357e-01 -8.963079999999999936e-01 2.012677000000000049e+00 -5.552009999999999446e-01 1.245509999999999950e-01 2.821219999999999839e-01
2.765460000000000140e-01 2.769820000000000060e-01 5.836409999999999654e-01 3.379780000000000006e-01 -1.703149000000000024e+00 -3.750640000000000085e-01 -3.966549999999999798e-01 1.114117999999999942e+00 3.639890000000000070e-01 -8.150500000000000522e-01 7.166420000000000012e-01 3.537690000000000001e-01 -2.729699999999999835e-02 4.875360000000000249e-01 7.706650000000000444e-01 -5.309329999999999883e-01 -3.142960000000000198e-01 2.854709999999999748e-01 -1.011480000000000018e-01 -4.699749999999999761e-01 9.014450000000000518e-01 3.988729999999999776e-01 2.130900000000000016e-01 2.879180000000000073e-01 1.933149999999999868e-01 3.470899999999999680e-02 1.963260000000000005e-01 9.446229999999999905e-01 -8.142449999999999966e-01 -3.042070000000000052e-01 1.338370999999999977e+00 -3.736959999999999726e-01 3.866899999999999782e-01 -7.296070000000000055e-01 1.172987999999999920e+00 -6.939119999999999733e-01 -3.829870000000000219e-01 8.819099999999999717e-01 -5.164500000000000340e-02 -4.870599999999999929e-01 -4.497070000000000234e-01 -9.604059999999999819e-01 -6.289160000000000306e-01 1.895280000000000020e-01 -2.462789999999999979e-01 -2.872410000000000241e-01 4.832799999999999874e-01 -4.039070000000000160e-01 1.049237999999999893e+00 -9.750459999999999683e-01 5.531970000000000498e-01 2.429179999999999950e-01 9.000289999999999679e-01 1.268289999999999973e-01 -4.359500000000000042e-01 -6.792700000000000404e-01 -9.498659999999999881e-01 -1.513420000000000043e-01 -9.108499999999999930e-02 4.704430000000000001e-01 9.359480000000000022e-01 4.718899999999999761e-01 2.925309999999999855e-01 9.891520000000000312e-01 1.269329999999999903e-01 -5.823099999999999943e-01 -3.025269999999999904e-01 3.466250000000000164e-01 -5.293689999999999785e-01 -6.014329999999999954e-01 -1.115925999999999974e+00 7.896009999999999973e-01 -1.222280000000000033e-01 -3.344139999999999890e-01 1.086518000000000095e+00 5.176000000000000045e-02 -7.086199999999999444e-02 -3.667739999999999889e-01 -1.179486999999999952e+00 4.877599999999999991e-02 -7.427139999999999853e-01 -9.210509999999999531e-01 3.641099999999999892e-02 -9.382730000000000237e-01 2.619420000000000082e-01 -7.860230000000000272e-01 5.721039999999999459e-01 1.080249999999999932e+00 6.762470000000000425e-01 -8.764100000000000223e-01