7.931581274000000015e+00 0.000000000000000000e+00 0.000000000000000000e+00 -4.117464652999999863e+00 7.131658481999999744e+00 0.000000000000000000e+00 0.000000000000000000e+00 0.000000000000000000e+00 2.000000000000000000e+01
8.066798224999999434e+00 0.000000000000000000e+00 0.000000000000000000e+00 -3.981518494999999991e+00 6.896192811999999783e+00 0.000000000000000000e+00 0.000000000000000000e+00 0.000000000000000000e+00 2.000000000000000000e+01
8.011194404999999463e+00 0.000000000000000000e+00 0.000000000000000000e+00 -4.028946988999999590e+00 6.978341378999999733e+00 0.000000000000000000e+00 0.000000000000000000e+00 0.000000000000000000e+00 2.000000000000000000e+01
