7.212096406303683871e+00 1.467563717081380670e+00 -2.839344150841493608e+00 1.467563717081380670e+00 3.554537768074167436e-01 -1.262305754466863439e+00 -2.839344150841493608e+00 -1.262305754466863439e+00 6.651822452621956927e+00
7.729355959036753987e+00 -2.375807216788499598e+00 2.144380558150079441e+00 -2.375807216788499598e+00 9.172394160192677504e+00 2.799418139299519659e+00 2.144380558150079441e+00 2.799418139299519659e+00 8.125668730101226700e+00
1.032835355972331470e+01 1.847343422445091088e+00 -4.607140436430879338e-01 1.847343422445091088e+00 3.188353610976336405e+00 -1.551296720645171545e+00 -4.607140436430879338e-01 -1.551296720645171545e+00 6.717842739469184643e+00
