8.054440322999999680e+00 0.000000000000000000e+00 0.000000000000000000e+00 -3.951904971999999905e+00 7.189085975000000239e+00 0.000000000000000000e+00 4.511879520000000032e-01 -5.331689199999999768e-02 1.053866176900000085e+01
8.493099463000000071e+00 0.000000000000000000e+00 0.000000000000000000e+00 -3.970174721999999878e+00 7.221912955999999717e+00 0.000000000000000000e+00 4.392102729999999844e-01 -5.399639600000000206e-02 1.082233473700000026e+01
8.488499754999999425e+00 0.000000000000000000e+00 0.000000000000000000e+00 -3.968024547999999818e+00 7.218001700000000298e+00 0.000000000000000000e+00 4.389724050000000100e-01 -5.396715199999999740e-02 1.081647355900000029e+01
8.305651244999999960e+00 0.000000000000000000e+00 0.000000000000000000e+00 -4.075161418000000424e+00 7.413307255000000318e+00 0.000000000000000000e+00 4.652601080000000056e-01 -5.497979900000000281e-02 1.086735337700000059e+01
8.331117138999999838e+00 0.000000000000000000e+00 0.000000000000000000e+00 -4.108688561000000128e+00 7.199845960000000211e+00 0.000000000000000000e+00 5.573553239999999853e-01 -9.666227700000000478e-02 1.071709069499999956e+01
7.973798341000000178e+00 0.000000000000000000e+00 0.000000000000000000e+00 -3.912338044999999820e+00 7.117108019999999868e+00 0.000000000000000000e+00 4.466706060000000256e-01 -5.278307699999999769e-02 1.043314747600000025e+01
7.964323686000000180e+00 0.000000000000000000e+00 0.000000000000000000e+00 -3.907689312000000026e+00 7.108651304000000337e+00 0.000000000000000000e+00 4.461398619999999982e-01 -5.272035900000000136e-02 1.042075056500000052e+01
8.089257956999999166e+00 0.000000000000000000e+00 0.000000000000000000e+00 -3.968988217000000152e+00 7.220162865999999902e+00 0.000000000000000000e+00 4.531383420000000273e-01 -5.354736899999999744e-02 1.058421816399999926e+01
7.861445060000000318e+00 0.000000000000000000e+00 0.000000000000000000e+00 -3.857211994000000033e+00 7.016825769999999629e+00 0.000000000000000000e+00 4.403768800000000261e-01 -5.203934699999999969e-02 1.028614120700000001e+01
8.215441220000000655e+00 0.000000000000000000e+00 0.000000000000000000e+00 -3.991597510000000071e+00 7.120049877999999666e+00 0.000000000000000000e+00 4.913821039999999862e-01 4.230433000000000110e-02 1.052892974399999915e+01
8.206236962000000190e+00 0.000000000000000000e+00 0.000000000000000000e+00 -3.984160428000000032e+00 7.295353953000000224e+00 0.000000000000000000e+00 5.254992920000000067e-01 -1.892156660000000046e-01 1.105374619200000019e+01
8.258461067000000710e+00 0.000000000000000000e+00 0.000000000000000000e+00 -4.009515437000000126e+00 7.341781240999999625e+00 0.000000000000000000e+00 5.288435449999999705e-01 -1.904198259999999865e-01 1.112409171000000008e+01
8.469203365000000261e+00 0.000000000000000000e+00 0.000000000000000000e+00 -4.114891721000000224e+00 7.339977096000000145e+00 0.000000000000000000e+00 5.065601299999999974e-01 4.361104400000000159e-02 1.085415193500000086e+01
8.053313901999999302e+00 0.000000000000000000e+00 0.000000000000000000e+00 -3.951352293999999876e+00 7.188080573999999778e+00 0.000000000000000000e+00 4.511248529999999923e-01 -5.330943500000000224e-02 1.053718792799999981e+01
7.950315738999999660e+00 0.000000000000000000e+00 0.000000000000000000e+00 -3.862782247999999807e+00 6.890274435000000253e+00 0.000000000000000000e+00 4.755244140000000064e-01 4.093910099999999858e-02 1.018914427300000014e+01
8.579953858999999738e+00 0.000000000000000000e+00 0.000000000000000000e+00 -4.165601456000000091e+00 7.627588697000000195e+00 0.000000000000000000e+00 5.494308409999999476e-01 -1.978326599999999935e-01 1.155714034700000070e+01
8.066536058000000509e+00 0.000000000000000000e+00 0.000000000000000000e+00 -3.916335087999999853e+00 7.171159689999999642e+00 0.000000000000000000e+00 5.165533249999999521e-01 -1.859945060000000039e-01 1.086557001000000078e+01
8.096099954999999682e+00 0.000000000000000000e+00 0.000000000000000000e+00 -3.933613734999999778e+00 7.016620770000000284e+00 0.000000000000000000e+00 4.842440619999999751e-01 4.168979800000000013e-02 1.037598168399999921e+01
8.241290512000000845e+00 0.000000000000000000e+00 0.000000000000000000e+00 -4.064388422999999584e+00 7.122216768999999559e+00 0.000000000000000000e+00 5.513458839999999528e-01 -9.562005899999999337e-02 1.060153835000000022e+01
8.300960556999999795e+00 0.000000000000000000e+00 0.000000000000000000e+00 -4.145272341000000083e+00 7.171477226000000371e+00 0.000000000000000000e+00 7.005191179999999962e-01 2.234884890000000124e-01 1.057924514599999988e+01
8.221365959999999973e+00 0.000000000000000000e+00 0.000000000000000000e+00 -4.054562157000000333e+00 7.104997745999999559e+00 0.000000000000000000e+00 5.500129230000000424e-01 -9.538888299999999376e-02 1.057590754699999991e+01
7.901633437000000093e+00 0.000000000000000000e+00 0.000000000000000000e+00 -3.839129209000000209e+00 6.848083102000000366e+00 0.000000000000000000e+00 4.726126279999999791e-01 4.068841799999999703e-02 1.012675291500000085e+01
8.605937700000000135e+00 0.000000000000000000e+00 0.000000000000000000e+00 -4.297569572999999643e+00 7.434957171999999836e+00 0.000000000000000000e+00 7.262561770000000028e-01 2.316994520000000002e-01 1.096792642399999984e+01
