2.924700000000000077e-01 1.375029999999999974e+00 1.803577999999999903e+01 -1.692209999999999992e+00 4.812599999999999767e+00 1.803577999999999903e+01 4.261840000000000295e+00 1.375029999999999974e+00 1.803577999999999903e+01 2.277159999999999851e+00 4.812599999999999767e+00 1.803577999999999903e+01 -2.978559999999999874e+00 6.304899999999999949e+00 1.377616000000000085e+01 -9.938900000000000512e-01 2.867340000000000000e+00 1.377616000000000085e+01 9.908000000000000140e-01 6.304899999999999949e+00 1.377616000000000085e+01 2.975480000000000125e+00 2.867340000000000000e+00 1.377616000000000085e+01 8.944600000000000328e-01 3.300879999999999814e+00 1.954545999999999850e+01 -1.090230000000000032e+00 6.738450000000000273e+00 1.954545999999999850e+01 4.863819999999999588e+00 3.300879999999999814e+00 1.954545999999999850e+01 2.879140000000000033e+00 6.738450000000000273e+00 1.954545999999999850e+01 -3.025139999999999940e+00 6.376210000000000377e+00 1.628356000000000137e+01 -1.040459999999999940e+00 2.938639999999999919e+00 1.628356000000000137e+01 9.442300000000000137e-01 6.376210000000000377e+00 1.628356000000000137e+01 2.928910000000000124e+00 2.938639999999999919e+00 1.628356000000000137e+01 9.906500000000000306e-01 3.416500000000000092e+00 1.230805999999999933e+01 -9.940400000000000347e-01 6.854070000000000107e+00 1.230805999999999933e+01 4.960009999999999586e+00 3.416500000000000092e+00 1.230805999999999933e+01 2.975330000000000030e+00 6.854070000000000107e+00 1.230805999999999933e+01
-2.924700000000000077e-01 1.375029999999999974e+00 1.803566000000000003e+01 -2.277159999999999851e+00 4.812610000000000277e+00 1.803566000000000003e+01 3.676899999999999835e+00 1.375029999999999974e+00 1.803566000000000003e+01 1.692220000000000057e+00 4.812610000000000277e+00 1.803566000000000003e+01 -2.975439999999999863e+00 6.757920000000000371e+00 1.377605999999999931e+01 -9.907599999999999740e-01 3.320359999999999978e+00 1.377605999999999931e+01 9.939299999999999802e-01 6.757920000000000371e+00 1.377605999999999931e+01 2.978610000000000202e+00 3.320359999999999978e+00 1.377605999999999931e+01 1.090270000000000072e+00 2.886730000000000018e+00 1.954532000000000025e+01 -8.944199999999999928e-01 6.324309999999999654e+00 1.954532000000000025e+01 5.059630000000000294e+00 2.886730000000000018e+00 1.954532000000000025e+01 3.074949999999999850e+00 6.324309999999999654e+00 1.954532000000000025e+01 -2.928859999999999797e+00 6.686589999999999812e+00 1.628346000000000160e+01 -9.441800000000000193e-01 3.249019999999999797e+00 1.628346000000000160e+01 1.040499999999999980e+00 6.686589999999999812e+00 1.628346000000000160e+01 3.025189999999999824e+00 3.249019999999999797e+00 1.628346000000000160e+01 9.940799999999999637e-01 2.771090000000000053e+00 1.230799999999999983e+01 -9.906000000000000361e-01 6.208660000000000068e+00 1.230799999999999983e+01 4.963449999999999918e+00 2.771090000000000053e+00 1.230799999999999983e+01 2.978759999999999852e+00 6.208660000000000068e+00 1.230799999999999983e+01
3.760399999999999854e-01 1.375019999999999909e+00 1.803579999999999828e+01 -1.608640000000000070e+00 4.812590000000000146e+00 1.803579999999999828e+01 4.345410000000000217e+00 1.375019999999999909e+00 1.803579999999999828e+01 2.360710000000000086e+00 4.812590000000000146e+00 1.803579999999999828e+01 -2.962180000000000035e+00 6.237449999999999939e+00 1.374283999999999928e+01 -9.775000000000000355e-01 2.799879999999999924e+00 1.374283999999999928e+01 1.007190000000000030e+00 6.237449999999999939e+00 1.374283999999999928e+01 2.991870000000000029e+00 2.799879999999999924e+00 1.374283999999999928e+01 8.656300000000000106e-01 3.362159999999999815e+00 1.953046000000000149e+01 -1.119050000000000100e+00 6.799730000000000274e+00 1.953046000000000149e+01 4.834999999999999964e+00 3.362159999999999815e+00 1.953046000000000149e+01 2.850309999999999899e+00 6.799730000000000274e+00 1.953046000000000149e+01 -3.022899999999999920e+00 6.342609999999999637e+00 1.626792000000000016e+01 -1.038219999999999921e+00 2.905040000000000067e+00 1.626792000000000016e+01 9.464700000000000335e-01 6.342609999999999637e+00 1.626792000000000016e+01 2.931150000000000144e+00 2.905040000000000067e+00 1.626792000000000016e+01 1.007179999999999964e+00 3.529500000000000082e+00 1.230927999999999933e+01 2.991849999999999898e+00 9.192999999999999783e-02 1.230927999999999933e+01 4.976539999999999964e+00 3.529500000000000082e+00 1.230927999999999933e+01 6.961219999999999963e+00 9.192999999999999783e-02 1.230927999999999933e+01
-4.596000000000000085e-01 1.375040000000000040e+00 1.803562000000000154e+01 -2.444280000000000008e+00 4.812610000000000277e+00 1.803562000000000154e+01 3.509770000000000056e+00 1.375040000000000040e+00 1.803562000000000154e+01 1.525079999999999991e+00 4.812610000000000277e+00 1.803562000000000154e+01 9.762899999999999912e-01 1.060999999999999964e-02 1.372080000000000055e+01 -1.008389999999999898e+00 3.448179999999999801e+00 1.372080000000000055e+01 4.945660000000000167e+00 1.060999999999999964e-02 1.372080000000000055e+01 2.960989999999999789e+00 3.448179999999999801e+00 1.372080000000000055e+01 1.160530000000000062e+00 2.756429999999999936e+00 1.950448000000000093e+01 -8.241500000000000492e-01 6.193999999999999950e+00 1.950448000000000093e+01 5.129900000000000126e+00 2.756429999999999936e+00 1.950448000000000093e+01 3.145220000000000127e+00 6.193999999999999950e+00 1.950448000000000093e+01 -2.922159999999999869e+00 6.757889999999999731e+00 1.625819999999999865e+01 -9.374799999999999800e-01 3.320320000000000160e+00 1.625819999999999865e+01 1.047199999999999909e+00 6.757889999999999731e+00 1.625819999999999865e+01 3.031890000000000196e+00 3.320320000000000160e+00 1.625819999999999865e+01 9.760299999999999532e-01 2.557729999999999837e+00 1.232709999999999972e+01 -1.008650000000000047e+00 5.995300000000000296e+00 1.232709999999999972e+01 4.945400000000000240e+00 2.557729999999999837e+00 1.232709999999999972e+01 2.960710000000000175e+00 5.995300000000000296e+00 1.232709999999999972e+01
-3.760399999999999854e-01 1.375040000000000040e+00 1.803564000000000078e+01 -2.360710000000000086e+00 4.812610000000000277e+00 1.803564000000000078e+01 3.593329999999999913e+00 1.375040000000000040e+00 1.803564000000000078e+01 1.608649999999999913e+00 4.812610000000000277e+00 1.803564000000000078e+01 -2.991830000000000211e+00 6.825370000000000381e+00 1.374269999999999925e+01 -1.007149999999999990e+00 3.387799999999999923e+00 1.374269999999999925e+01 9.775300000000000100e-01 6.825370000000000381e+00 1.374269999999999925e+01 2.962209999999999788e+00 3.387799999999999923e+00 1.374269999999999925e+01 1.119119999999999893e+00 2.825439999999999952e+00 1.953030000000000044e+01 -8.655599999999999961e-01 6.263010000000000410e+00 1.953030000000000044e+01 5.088490000000000180e+00 2.825439999999999952e+00 1.953030000000000044e+01 3.103800000000000114e+00 6.263010000000000410e+00 1.953030000000000044e+01 -2.931090000000000195e+00 6.720200000000000173e+00 1.626777999999999835e+01 -9.464000000000000190e-01 3.282630000000000159e+00 1.626777999999999835e+01 1.038289999999999935e+00 6.720200000000000173e+00 1.626777999999999835e+01 3.022969999999999935e+00 3.282630000000000159e+00 1.626777999999999835e+01 9.775500000000000300e-01 2.658069999999999933e+00 1.230917999999999957e+01 -1.007130000000000081e+00 6.095640000000000391e+00 1.230917999999999957e+01 4.946930000000000049e+00 2.658069999999999933e+00 1.230917999999999957e+01 2.962239999999999984e+00 6.095640000000000391e+00 1.230917999999999957e+01
-1.253400000000000070e-01 1.375029999999999974e+00 1.803569999999999851e+01 -2.110030000000000072e+00 4.812610000000000277e+00 1.803569999999999851e+01 3.844019999999999992e+00 1.375029999999999974e+00 1.803569999999999851e+01 1.859339999999999993e+00 4.812610000000000277e+00 1.803569999999999851e+01 -2.958790000000000031e+00 6.621299999999999741e+00 1.385612000000000066e+01 -9.741100000000000314e-01 3.183730000000000171e+00 1.385612000000000066e+01 1.010580000000000034e+00 6.621299999999999741e+00 1.385612000000000066e+01 2.995260000000000034e+00 3.183730000000000171e+00 1.385612000000000066e+01 1.030280000000000085e+00 3.006689999999999863e+00 1.953997999999999990e+01 -9.544099999999999806e-01 6.444259999999999877e+00 1.953997999999999990e+01 4.999640000000000306e+00 3.006689999999999863e+00 1.953997999999999990e+01 3.014959999999999862e+00 6.444259999999999877e+00 1.953997999999999990e+01 -2.947769999999999779e+00 6.605640000000000178e+00 1.632212000000000174e+01 -9.630900000000000016e-01 3.168070000000000164e+00 1.632212000000000174e+01 1.021600000000000064e+00 6.605640000000000178e+00 1.632212000000000174e+01 3.006279999999999841e+00 3.168070000000000164e+00 1.632212000000000174e+01 1.010399999999999965e+00 2.985059999999999825e+00 1.237288000000000032e+01 -9.742800000000000349e-01 6.422620000000000218e+00 1.237288000000000032e+01 4.979770000000000252e+00 2.985059999999999825e+00 1.237288000000000032e+01 2.995089999999999808e+00 6.422620000000000218e+00 1.237288000000000032e+01
2.089000000000000024e-01 1.375029999999999974e+00 1.803575999999999979e+01 -1.775779999999999914e+00 4.812599999999999767e+00 1.803575999999999979e+01 4.178270000000000373e+00 1.375029999999999974e+00 1.803575999999999979e+01 2.193589999999999929e+00 4.812599999999999767e+00 1.803575999999999979e+01 -2.999649999999999928e+00 6.378359999999999808e+00 1.382868000000000031e+01 -1.014960000000000084e+00 2.940789999999999793e+00 1.382868000000000031e+01 9.697099999999999609e-01 6.378359999999999808e+00 1.382868000000000031e+01 2.954400000000000137e+00 2.940789999999999793e+00 1.382868000000000031e+01 9.243900000000000450e-01 3.240190000000000126e+00 1.954723999999999862e+01 -1.060289999999999955e+00 6.677760000000000140e+00 1.954723999999999862e+01 4.893760000000000332e+00 3.240190000000000126e+00 1.954723999999999862e+01 2.909069999999999823e+00 6.677760000000000140e+00 1.954723999999999862e+01 -3.024610000000000021e+00 6.411739999999999995e+00 1.631032000000000082e+01 -1.039930000000000021e+00 2.974169999999999980e+00 1.631032000000000082e+01 9.447600000000000442e-01 6.411739999999999995e+00 1.631032000000000082e+01 2.929440000000000044e+00 2.974169999999999980e+00 1.631032000000000082e+01 9.697400000000000464e-01 3.290169999999999817e+00 1.234200000000000053e+01 -1.014939999999999953e+00 6.727750000000000341e+00 1.234200000000000053e+01 4.939110000000000333e+00 3.290169999999999817e+00 1.234200000000000053e+01 2.954429999999999890e+00 6.727750000000000341e+00 1.234200000000000053e+01
4.177999999999999770e-02 1.375029999999999974e+00 1.803572000000000131e+01 -1.942900000000000071e+00 4.812599999999999767e+00 1.803572000000000131e+01 4.011149999999999771e+00 1.375029999999999974e+00 1.803572000000000131e+01 2.026470000000000216e+00 4.812599999999999767e+00 1.803572000000000131e+01 -2.985549999999999926e+00 6.501030000000000086e+00 1.386100000000000065e+01 -1.000869999999999926e+00 3.063460000000000072e+00 1.386100000000000065e+01 9.838099999999999623e-01 6.501030000000000086e+00 1.386100000000000065e+01 2.968500000000000139e+00 3.063460000000000072e+00 1.386100000000000065e+01 9.795800000000000063e-01 3.123530000000000140e+00 1.951407999999999987e+01 -1.005100000000000104e+00 6.561099999999999710e+00 1.951407999999999987e+01 4.948949999999999960e+00 3.123530000000000140e+00 1.951407999999999987e+01 2.964269999999999960e+00 6.561099999999999710e+00 1.951407999999999987e+01 -2.987820000000000142e+00 6.504879999999999995e+00 1.632552000000000092e+01 -1.003130000000000077e+00 3.067309999999999981e+00 1.632552000000000092e+01 9.815599999999999881e-01 6.504879999999999995e+00 1.632552000000000092e+01 2.966239999999999988e+00 3.067309999999999981e+00 1.632552000000000092e+01 9.839099999999999513e-01 3.128239999999999910e+00 1.240579999999999927e+01 -1.000769999999999937e+00 6.565820000000000434e+00 1.240579999999999927e+01 4.953269999999999840e+00 3.128239999999999910e+00 1.240579999999999927e+01 2.968599999999999905e+00 6.565820000000000434e+00 1.240579999999999927e+01
-4.177999999999999770e-02 1.375029999999999974e+00 1.803572000000000131e+01 -2.026460000000000150e+00 4.812599999999999767e+00 1.803572000000000131e+01 3.927589999999999915e+00 1.375029999999999974e+00 1.803572000000000131e+01 1.942900000000000071e+00 4.812599999999999767e+00 1.803572000000000131e+01 -2.968480000000000008e+00 6.561749999999999972e+00 1.386101999999999990e+01 -9.838000000000000078e-01 3.124179999999999957e+00 1.386101999999999990e+01 1.000890000000000057e+00 6.561749999999999972e+00 1.386101999999999990e+01 2.985570000000000057e+00 3.124179999999999957e+00 1.386101999999999990e+01 1.005120000000000013e+00 3.064090000000000202e+00 1.951407999999999987e+01 -9.795599999999999863e-01 6.501660000000000217e+00 1.951407999999999987e+01 4.974490000000000300e+00 3.064090000000000202e+00 1.951407999999999987e+01 2.989799999999999791e+00 6.501660000000000217e+00 1.951407999999999987e+01 -2.966200000000000170e+00 6.557900000000000063e+00 1.632552000000000092e+01 -9.815199999999999481e-01 3.120330000000000048e+00 1.632552000000000092e+01 1.003160000000000052e+00 6.557900000000000063e+00 1.632552000000000092e+01 2.987849999999999895e+00 3.120330000000000048e+00 1.632552000000000092e+01 1.000790000000000068e+00 3.059379999999999988e+00 1.240582000000000029e+01 -9.838900000000000423e-01 6.496950000000000003e+00 1.240582000000000029e+01 4.970159999999999911e+00 3.059379999999999988e+00 1.240582000000000029e+01 2.985479999999999912e+00 6.496950000000000003e+00 1.240582000000000029e+01
-2.089000000000000024e-01 1.375029999999999974e+00 1.803567999999999927e+01 -2.193589999999999929e+00 4.812610000000000277e+00 1.803567999999999927e+01 3.760470000000000201e+00 1.375029999999999974e+00 1.803567999999999927e+01 1.775779999999999914e+00 4.812610000000000277e+00 1.803567999999999927e+01 -2.954369999999999941e+00 6.684450000000000003e+00 1.382865999999999929e+01 -9.696900000000000519e-01 3.246879999999999988e+00 1.382865999999999929e+01 1.014999999999999902e+00 6.684450000000000003e+00 1.382865999999999929e+01 2.999680000000000124e+00 3.246879999999999988e+00 1.382865999999999929e+01 1.060329999999999995e+00 2.947420000000000151e+00 1.954713999999999885e+01 -9.243599999999999595e-01 6.384990000000000165e+00 1.954713999999999885e+01 5.029690000000000438e+00 2.947420000000000151e+00 1.954713999999999885e+01 3.045009999999999994e+00 6.384990000000000165e+00 1.954713999999999885e+01 -2.929399999999999782e+00 6.651049999999999685e+00 1.631027999999999878e+01 -9.447200000000000042e-01 3.213480000000000114e+00 1.631027999999999878e+01 1.039959999999999996e+00 6.651049999999999685e+00 1.631027999999999878e+01 3.024649999999999839e+00 3.213480000000000114e+00 1.631027999999999878e+01 1.014979999999999993e+00 2.897429999999999950e+00 1.234200000000000053e+01 -9.697099999999999609e-01 6.334999999999999964e+00 1.234200000000000053e+01 4.984340000000000437e+00 2.897429999999999950e+00 1.234200000000000053e+01 2.999659999999999993e+00 6.334999999999999964e+00 1.234200000000000053e+01
1.253400000000000070e-01 1.375029999999999974e+00 1.803574000000000055e+01 -1.859339999999999993e+00 4.812599999999999767e+00 1.803574000000000055e+01 4.094710000000000072e+00 1.375029999999999974e+00 1.803574000000000055e+01 2.110030000000000072e+00 4.812599999999999767e+00 1.803574000000000055e+01 -2.995220000000000216e+00 6.441489999999999938e+00 1.385609999999999964e+01 -1.010539999999999994e+00 3.003929999999999989e+00 1.385609999999999964e+01 9.741400000000000059e-01 6.441489999999999938e+00 1.385609999999999964e+01 2.958819999999999784e+00 3.003929999999999989e+00 1.385609999999999964e+01 9.544399999999999551e-01 3.180919999999999970e+00 1.954004000000000119e+01 -1.030240000000000045e+00 6.618490000000000428e+00 1.954004000000000119e+01 4.923809999999999576e+00 3.180919999999999970e+00 1.954004000000000119e+01 2.939130000000000020e+00 6.618490000000000428e+00 1.954004000000000119e+01 -3.006240000000000023e+00 6.457150000000000389e+00 1.632212000000000174e+01 -1.021560000000000024e+00 3.019579999999999931e+00 1.632212000000000174e+01 9.631199999999999761e-01 6.457150000000000389e+00 1.632212000000000174e+01 2.947810000000000041e+00 3.019579999999999931e+00 1.632212000000000174e+01 9.743100000000000094e-01 3.202560000000000073e+00 1.237284000000000006e+01 -1.010380000000000056e+00 6.640139999999999709e+00 1.237284000000000006e+01 4.943679999999999630e+00 3.202560000000000073e+00 1.237284000000000006e+01 2.958990000000000009e+00 6.640139999999999709e+00 1.237284000000000006e+01
