-6.862550215000000264e+01
-6.862584504999999524e+01
-6.953750807999999495e+01
-7.050342539999999758e+01
-6.953809619999999825e+01
-6.724167282000000512e+01
-6.778652678999999637e+01
-6.683655340999999339e+01
-6.683651412000000391e+01
-6.778652137000000266e+01
-6.724184642999999539e+01
