4.182299999999999907e-01 -9.701200000000000101e-02 1.627450000000000008e-01 4.182299999999999907e-01 -9.702099999999999613e-02 1.627510000000000068e-01 4.182179999999999787e-01 -9.703699999999999826e-02 1.627750000000000030e-01 4.182290000000000174e-01 -9.701899999999999413e-02 1.627550000000000108e-01 2.781300000000000092e-02 -6.171370000000000466e-01 -2.399119999999999864e-01 2.785100000000000076e-02 -6.171499999999999764e-01 -2.398899999999999921e-01 2.781300000000000092e-02 -6.171370000000000466e-01 -2.399149999999999894e-01 2.784899999999999876e-02 -6.171550000000000091e-01 -2.398929999999999951e-01 -3.384190000000000254e-01 3.069839999999999791e-01 1.892840000000000078e-01 -3.383920000000000261e-01 3.070140000000000091e-01 1.892729999999999968e-01 -3.384210000000000274e-01 3.069749999999999979e-01 1.892860000000000098e-01 -3.384280000000000066e-01 3.069799999999999751e-01 1.892840000000000078e-01 -1.233179999999999971e-01 -3.430639999999999801e-01 -5.703600000000000336e-02 -1.233049999999999979e-01 -3.430849999999999733e-01 -5.703199999999999936e-02 -1.233159999999999951e-01 -3.430710000000000148e-01 -5.702900000000000330e-02 -1.233240000000000031e-01 -3.430610000000000048e-01 -5.703500000000000236e-02 1.565599999999999978e-02 7.502520000000000300e-01 -5.510999999999999927e-02 1.568900000000000156e-02 7.502469999999999972e-01 -5.509399999999999714e-02 1.565499999999999878e-02 7.502520000000000300e-01 -5.511200000000000127e-02 1.568800000000000056e-02 7.502469999999999972e-01 -5.509499999999999814e-02
-4.182640000000000247e-01 9.710599999999999787e-02 1.627260000000000095e-01 -4.182660000000000267e-01 9.700999999999999901e-02 1.627369999999999928e-01 -4.183069999999999844e-01 9.707300000000000650e-02 1.627280000000000115e-01 -4.183129999999999904e-01 9.697999999999999676e-02 1.627339999999999898e-01 -2.784999999999999976e-02 6.172860000000000014e-01 -2.398510000000000086e-01 -2.781499999999999945e-02 6.172840000000000549e-01 -2.397980000000000111e-01 -2.784800000000000123e-02 6.173049999999999926e-01 -2.397920000000000051e-01 -2.781300000000000092e-02 6.172710000000000141e-01 -2.398659999999999959e-01 3.384489999999999998e-01 -3.070359999999999756e-01 1.893720000000000125e-01 3.384499999999999731e-01 -3.070530000000000204e-01 1.894059999999999910e-01 3.384619999999999851e-01 -3.070320000000000271e-01 1.894029999999999880e-01 3.384650000000000158e-01 -3.070499999999999896e-01 1.894349999999999923e-01 1.233400000000000052e-01 3.431239999999999846e-01 -5.712899999999999923e-02 1.233339999999999992e-01 3.431259999999999866e-01 -5.710099999999999898e-02 1.233419999999999933e-01 3.431089999999999973e-01 -5.713000000000000023e-02 1.233370000000000022e-01 3.431080000000000241e-01 -5.710300000000000098e-02 -1.564400000000000165e-02 -7.504070000000000462e-01 -5.518599999999999894e-02 -1.570799999999999974e-02 -7.503990000000000382e-01 -5.519899999999999807e-02 -1.574100000000000152e-02 -7.503959999999999519e-01 -5.518699999999999994e-02 -1.561199999999999914e-02 -7.504100000000000215e-01 -5.519899999999999807e-02
4.932730000000000170e-01 -1.233729999999999966e-01 1.301950000000000052e-01 4.932630000000000070e-01 -1.233719999999999956e-01 1.301889999999999992e-01 4.932799999999999963e-01 -1.233599999999999974e-01 1.301980000000000082e-01 4.933040000000000203e-01 -1.233479999999999993e-01 1.301930000000000032e-01 2.393999999999999947e-02 -7.140290000000000248e-01 -2.335939999999999961e-01 2.400000000000000050e-02 -7.140670000000000073e-01 -2.335560000000000136e-01 2.393899999999999847e-02 -7.140320000000000000e-01 -2.335980000000000001e-01 2.399700000000000097e-02 -7.140680000000000360e-01 -2.335510000000000086e-01 -4.138379999999999836e-01 3.693159999999999776e-01 5.854399999999999882e-02 -4.138209999999999944e-01 3.693350000000000244e-01 5.852500000000000063e-02 -4.138189999999999924e-01 3.693319999999999936e-01 5.852399999999999963e-02 -4.138220000000000232e-01 3.693270000000000164e-01 5.851599999999999857e-02 -1.175790000000000030e-01 -3.923189999999999733e-01 -6.813400000000000012e-02 -1.175790000000000030e-01 -3.923130000000000228e-01 -6.813299999999999912e-02 -1.175839999999999941e-01 -3.923110000000000208e-01 -6.813900000000000512e-02 -1.175770000000000010e-01 -3.923070000000000168e-01 -6.813099999999999712e-02 1.412399999999999940e-02 8.604150000000000409e-01 1.129690000000000000e-01 1.418999999999999949e-02 8.603790000000000049e-01 1.130079999999999973e-01 1.412199999999999914e-02 8.604150000000000409e-01 1.129700000000000010e-01 1.418499999999999969e-02 8.603800000000000336e-01 1.130079999999999973e-01
-5.464679999999999538e-01 1.385750000000000037e-01 1.175169999999999965e-01 -5.464949999999999530e-01 1.385820000000000107e-01 1.175319999999999976e-01 -5.465060000000000473e-01 1.385740000000000027e-01 1.175080000000000013e-01 -5.464510000000000201e-01 1.385889999999999900e-01 1.175410000000000066e-01 -1.828899999999999970e-02 6.523910000000000542e-01 -1.963219999999999965e-01 -1.827700000000000158e-02 6.523780000000000134e-01 -1.963199999999999945e-01 -1.829000000000000070e-02 6.523740000000000094e-01 -1.963249999999999995e-01 -1.835799999999999932e-02 6.523750000000000382e-01 -1.963080000000000103e-01 4.634280000000000066e-01 -4.136369999999999769e-01 -4.637299999999999756e-02 4.634220000000000006e-01 -4.136400000000000077e-01 -4.636900000000000049e-02 4.634460000000000246e-01 -4.136199999999999877e-01 -4.635399999999999937e-02 4.634019999999999806e-01 -4.136600000000000277e-01 -4.638500000000000262e-02 1.122960000000000069e-01 4.187199999999999811e-01 -7.097399999999999542e-02 1.123040000000000010e-01 4.187170000000000059e-01 -7.097799999999999943e-02 1.123040000000000010e-01 4.187190000000000079e-01 -7.098000000000000143e-02 1.122960000000000069e-01 4.187170000000000059e-01 -7.097100000000000630e-02 -1.093099999999999974e-02 -7.960270000000000401e-01 1.961650000000000060e-01 -1.095299999999999919e-02 -7.960390000000000521e-01 1.961410000000000098e-01 -1.092599999999999995e-02 -7.960500000000000353e-01 1.961170000000000135e-01 -1.095199999999999993e-02 -7.960380000000000233e-01 1.961410000000000098e-01
-4.933080000000000243e-01 1.234100000000000058e-01 1.303539999999999976e-01 -4.933409999999999740e-01 1.233999999999999958e-01 1.303410000000000124e-01 -4.932989999999999875e-01 1.234039999999999998e-01 1.303469999999999906e-01 -4.932869999999999755e-01 1.233950000000000047e-01 1.303590000000000027e-01 -2.391499999999999876e-02 7.140959999999999530e-01 -2.335409999999999986e-01 -2.390300000000000064e-02 7.141159999999999730e-01 -2.335280000000000133e-01 -2.391799999999999829e-02 7.141140000000000265e-01 -2.335480000000000056e-01 -2.381300000000000083e-02 7.140859999999999985e-01 -2.335710000000000008e-01 4.138049999999999784e-01 -3.693919999999999981e-01 5.841299999999999965e-02 4.138220000000000232e-01 -3.693730000000000069e-01 5.843099999999999683e-02 4.138069999999999804e-01 -3.693830000000000169e-01 5.840399999999999758e-02 4.138060000000000072e-01 -3.693879999999999941e-01 5.841199999999999865e-02 1.176350000000000035e-01 3.923249999999999793e-01 -6.817199999999999649e-02 1.176449999999999996e-01 3.923220000000000041e-01 -6.817800000000000249e-02 1.176200000000000023e-01 3.923429999999999973e-01 -6.816800000000000637e-02 1.176230000000000053e-01 3.923420000000000241e-01 -6.817299999999999749e-02 -1.423499999999999939e-02 -8.604640000000000066e-01 1.129280000000000006e-01 -1.421099999999999967e-02 -8.604490000000000194e-01 1.129560000000000008e-01 -1.431800000000000087e-02 -8.604450000000000154e-01 1.129809999999999981e-01 -1.421200000000000067e-02 -8.604600000000000026e-01 1.129549999999999998e-01
-2.272899999999999920e-01 4.491699999999999859e-02 1.610979999999999912e-01 -2.272969999999999990e-01 4.480599999999999861e-02 1.611529999999999907e-01 -2.272899999999999920e-01 4.491499999999999659e-02 1.611029999999999962e-01 -2.272990000000000010e-01 4.481000000000000261e-02 1.611269999999999925e-01 -1.932000000000000037e-02 2.614969999999999795e-01 -1.806619999999999893e-01 -1.931899999999999937e-02 2.615040000000000142e-01 -1.806059999999999888e-01 -1.932000000000000037e-02 2.614969999999999795e-01 -1.806619999999999893e-01 -1.931899999999999937e-02 2.614969999999999795e-01 -1.806790000000000063e-01 1.685329999999999884e-01 -1.395339999999999914e-01 6.183490000000000375e-01 1.685319999999999874e-01 -1.395409999999999984e-01 6.183849999999999625e-01 1.685319999999999874e-01 -1.395339999999999914e-01 6.183450000000000335e-01 1.685329999999999884e-01 -1.395409999999999984e-01 6.183880000000000488e-01 8.919599999999999751e-02 1.587339999999999862e-01 -3.672099999999999670e-02 8.922199999999999576e-02 1.586629999999999985e-01 -3.668600000000000333e-02 8.919599999999999751e-02 1.587339999999999862e-01 -3.672099999999999670e-02 8.922199999999999576e-02 1.586629999999999985e-01 -3.668699999999999739e-02 -1.107299999999999951e-02 -3.255290000000000128e-01 -5.621380000000000265e-01 -1.112800000000000074e-02 -3.255089999999999928e-01 -5.621249999999999858e-01 -1.118500000000000050e-02 -3.255290000000000128e-01 -5.621380000000000265e-01 -1.112800000000000074e-02 -3.255199999999999760e-01 -5.621249999999999858e-01
3.380290000000000239e-01 -6.894400000000000528e-02 2.152759999999999951e-01 3.380369999999999764e-01 -6.894999999999999740e-02 2.152779999999999971e-01 3.380279999999999951e-01 -6.895800000000000540e-02 2.152709999999999901e-01 3.379969999999999919e-01 -6.897100000000000453e-02 2.152759999999999951e-01 2.869199999999999875e-02 -4.268689999999999984e-01 -2.557170000000000276e-01 2.861899999999999861e-02 -4.268689999999999984e-01 -2.557139999999999969e-01 2.869299999999999976e-02 -4.268660000000000232e-01 -2.557110000000000216e-01 2.862100000000000061e-02 -4.268669999999999964e-01 -2.557170000000000276e-01 -2.579159999999999786e-01 2.313510000000000011e-01 3.968419999999999725e-01 -2.579299999999999926e-01 2.313330000000000108e-01 3.968630000000000213e-01 -2.579310000000000214e-01 2.313330000000000108e-01 3.968630000000000213e-01 -2.579259999999999886e-01 2.313459999999999961e-01 3.968740000000000046e-01 -1.248630000000000018e-01 -2.643389999999999906e-01 -4.366400000000000142e-02 -1.248680000000000068e-01 -2.643400000000000194e-01 -4.366600000000000342e-02 -1.248579999999999968e-01 -2.643499999999999739e-01 -4.365700000000000136e-02 -1.248689999999999939e-01 -2.643490000000000006e-01 -4.367000000000000048e-02 1.614799999999999916e-02 5.288270000000000470e-01 -3.127570000000000072e-01 1.607300000000000048e-02 5.288270000000000470e-01 -3.127570000000000072e-01 1.614700000000000163e-02 5.288279999999999648e-01 -3.127570000000000072e-01 1.607499999999999901e-02 5.288270000000000470e-01 -3.127570000000000072e-01
9.054800000000000348e-02 -2.020500000000000074e-02 -7.737199999999999633e-02 9.054600000000000148e-02 -2.020399999999999974e-02 -7.737199999999999633e-02 9.054800000000000348e-02 -2.022900000000000045e-02 -7.737399999999999833e-02 9.055000000000000548e-02 -2.023099999999999898e-02 -7.738200000000000633e-02 7.195000000000000007e-03 -9.802199999999999802e-02 1.679579999999999962e-01 7.148999999999999973e-03 -9.802099999999999702e-02 1.679200000000000137e-01 7.190000000000000210e-03 -9.802500000000000102e-02 1.679589999999999972e-01 7.145000000000000309e-03 -9.802700000000000302e-02 1.680030000000000134e-01 -6.740400000000000558e-02 4.763799999999999979e-02 9.469570000000000487e-01 -6.740200000000000358e-02 4.764000000000000179e-02 9.469560000000000199e-01 -6.740200000000000358e-02 4.764100000000000279e-02 9.469579999999999664e-01 -6.740100000000000258e-02 4.764299999999999785e-02 9.469589999999999952e-01 -3.480400000000000160e-02 -4.942400000000000265e-02 -1.061700000000000005e-01 -3.480400000000000160e-02 -4.942300000000000165e-02 -1.061710000000000015e-01 -3.481800000000000173e-02 -4.939899999999999847e-02 -1.061740000000000045e-01 -3.481800000000000173e-02 -4.940100000000000047e-02 -1.061720000000000025e-01 4.460999999999999688e-03 1.200129999999999947e-01 -9.313700000000000312e-01 4.470000000000000015e-03 1.200070000000000026e-01 -9.313690000000000024e-01 4.584000000000000401e-03 1.200119999999999937e-01 -9.313719999999999777e-01 4.470000000000000015e-03 1.200179999999999997e-01 -9.313709999999999489e-01
-9.056100000000000261e-02 2.023300000000000098e-02 -7.736400000000000221e-02 -9.056300000000000461e-02 2.023499999999999951e-02 -7.735000000000000209e-02 -9.056100000000000261e-02 2.023300000000000098e-02 -7.734000000000000596e-02 -9.056100000000000261e-02 2.023399999999999851e-02 -7.736999999999999433e-02 -7.163000000000000096e-03 9.804699999999999527e-02 1.677400000000000002e-01 -7.159999999999999698e-03 9.805099999999999927e-02 1.677359999999999962e-01 -7.159999999999999698e-03 9.805099999999999927e-02 1.677379999999999982e-01 -7.163000000000000096e-03 9.804699999999999527e-02 1.677369999999999972e-01 6.740300000000000458e-02 -4.769000000000000322e-02 9.469469999999999832e-01 6.740500000000000658e-02 -4.768700000000000022e-02 9.469480000000000119e-01 6.740400000000000558e-02 -4.768900000000000222e-02 9.469480000000000119e-01 6.740599999999999370e-02 -4.768499999999999822e-02 9.469469999999999832e-01 3.482600000000000279e-02 4.947399999999999715e-02 -1.059630000000000016e-01 3.484600000000000197e-02 4.943600000000000078e-02 -1.059620000000000006e-01 3.484500000000000097e-02 4.943800000000000278e-02 -1.059630000000000016e-01 3.482699999999999685e-02 4.947300000000000308e-02 -1.059630000000000016e-01 -4.518000000000000314e-03 -1.200500000000000039e-01 -9.313660000000000272e-01 -4.518999999999999580e-03 -1.200500000000000039e-01 -9.313669999999999449e-01 -4.518000000000000314e-03 -1.200500000000000039e-01 -9.313679999999999737e-01 -4.517000000000000182e-03 -1.200500000000000039e-01 -9.313649999999999984e-01
-3.380799999999999916e-01 6.899099999999999677e-02 2.154200000000000004e-01 -3.380859999999999976e-01 6.889199999999999491e-02 2.154260000000000064e-01 -3.380810000000000204e-01 6.898999999999999577e-02 2.154220000000000024e-01 -3.380900000000000016e-01 6.889599999999999891e-02 2.154119999999999924e-01 -2.859199999999999936e-02 4.269669999999999854e-01 -2.558849999999999736e-01 -2.859199999999999936e-02 4.269609999999999794e-01 -2.558750000000000191e-01 -2.859099999999999836e-02 4.269640000000000102e-01 -2.558849999999999736e-01 -2.859099999999999836e-02 4.269620000000000082e-01 -2.558770000000000211e-01 2.579719999999999791e-01 -2.313709999999999933e-01 3.970299999999999940e-01 2.579719999999999791e-01 -2.313870000000000093e-01 3.970639999999999725e-01 2.579710000000000059e-01 -2.313709999999999933e-01 3.970290000000000208e-01 2.579719999999999791e-01 -2.313870000000000093e-01 3.970650000000000013e-01 1.248969999999999941e-01 2.644110000000000071e-01 -4.373400000000000204e-02 1.248920000000000030e-01 2.644070000000000031e-01 -4.370500000000000079e-02 1.248969999999999941e-01 2.644119999999999804e-01 -4.373300000000000104e-02 1.248920000000000030e-01 2.644070000000000031e-01 -4.370199999999999779e-02 -1.619200000000000153e-02 -5.289369999999999905e-01 -3.128699999999999815e-01 -1.619100000000000053e-02 -5.289350000000000440e-01 -3.128670000000000062e-01 -1.618899999999999853e-02 -5.289369999999999905e-01 -3.128699999999999815e-01 -1.618999999999999953e-02 -5.289359999999999618e-01 -3.128670000000000062e-01
2.271920000000000051e-01 -4.487100000000000116e-02 1.610159999999999925e-01 2.271890000000000021e-01 -4.487000000000000016e-02 1.610169999999999935e-01 2.271940000000000071e-01 -4.487200000000000216e-02 1.610139999999999905e-01 2.271920000000000051e-01 -4.487100000000000116e-02 1.610169999999999935e-01 1.919500000000000026e-02 -2.614230000000000165e-01 -1.805620000000000003e-01 1.927500000000000047e-02 -2.614310000000000245e-01 -1.805410000000000070e-01 1.919500000000000026e-02 -2.614219999999999877e-01 -1.805620000000000003e-01 1.927500000000000047e-02 -2.614299999999999957e-01 -1.805410000000000070e-01 -1.684650000000000036e-01 1.395240000000000091e-01 6.181799999999999518e-01 -1.684650000000000036e-01 1.395240000000000091e-01 6.181799999999999518e-01 -1.684650000000000036e-01 1.395230000000000081e-01 6.181799999999999518e-01 -1.684650000000000036e-01 1.395230000000000081e-01 6.181799999999999518e-01 -8.916899999999999826e-02 -1.586680000000000035e-01 -3.666400000000000214e-02 -8.916899999999999826e-02 -1.586609999999999965e-01 -3.666500000000000314e-02 -8.916899999999999826e-02 -1.586680000000000035e-01 -3.666400000000000214e-02 -8.916899999999999826e-02 -1.586619999999999975e-01 -3.666500000000000314e-02 1.116299999999999931e-02 3.254440000000000111e-01 -5.619880000000000431e-01 1.124999999999999958e-02 3.254340000000000011e-01 -5.619729999999999448e-01 1.116299999999999931e-02 3.254440000000000111e-01 -5.619880000000000431e-01 1.125100000000000058e-02 3.254340000000000011e-01 -5.619729999999999448e-01
