-7.095921271999999647e+01
-7.157639808999999786e+01
-7.161846124000000202e+01
-7.147696632999999622e+01
-7.048869913999999426e+01
-7.051315003999999931e+01
-7.062971851000000356e+01
-7.137558131000000117e+01
-7.135845598000000223e+01
-7.120685108000000696e+01
-7.105497183999999322e+01
-7.154220401000000606e+01
-7.149159362000000328e+01
-7.161469062000000463e+01
-7.110811621999999943e+01
-7.098519124000000602e+01
-7.138154437000000030e+01
-7.083004418000000157e+01
-7.144175018999999338e+01
-7.170182434000000171e+01
-7.162337614000000485e+01
-7.023680697000000350e+01
-7.010257176000000356e+01
-7.044005069000000674e+01
-7.162535581000000207e+01
-7.151647459999999512e+01
-6.983120291999999552e+01
-6.856730333000000144e+01
-7.126639692000000537e+01
-7.136539885000000538e+01
-7.036048479999999472e+01
-7.087514991000000464e+01
-7.158672568000000069e+01
-7.145327039999999386e+01
-7.079818862999999851e+01
-7.140442036999999686e+01
-7.151728457000000105e+01
-7.123761081000000672e+01
-7.068255055999999570e+01
-7.080321426000000429e+01
-7.143586458000000050e+01
-7.174895379000000162e+01
-7.086061943999999357e+01
-7.180213453000000356e+01
-7.099669043000000102e+01
-7.142748588999999981e+01
-6.982578802000000451e+01
-7.158986092000000667e+01
-7.102487657999999726e+01
-7.146624713999999301e+01
