8.000871373000000730e+00 0.000000000000000000e+00 0.000000000000000000e+00 -3.961303011000000041e+00 7.357103683000000061e+00 0.000000000000000000e+00 6.935356369999999826e-01 2.439229709999999884e-01 1.074888659600000018e+01
7.955699520999999663e+00 0.000000000000000000e+00 0.000000000000000000e+00 -3.938938022999999955e+00 7.315566457000000078e+00 0.000000000000000000e+00 6.896200279999999960e-01 2.425458139999999985e-01 1.068819981699999921e+01
8.209263225000000830e+00 0.000000000000000000e+00 0.000000000000000000e+00 -4.158407099999999801e+00 7.335153651999999802e+00 0.000000000000000000e+00 6.520106639999999620e-01 -4.239809299999999781e-02 1.085942252000000074e+01
8.191718854999999522e+00 0.000000000000000000e+00 0.000000000000000000e+00 -4.149519988999999853e+00 7.319477379000000283e+00 0.000000000000000000e+00 6.506172239999999940e-01 -4.230748200000000042e-02 1.083621437999999948e+01
8.026622373000000366e+00 0.000000000000000000e+00 0.000000000000000000e+00 -3.859270894999999868e+00 7.393570216999999722e+00 0.000000000000000000e+00 4.565884680000000251e-01 2.024021169999999925e-01 1.039306479400000072e+01
7.933997781999999610e+00 0.000000000000000000e+00 0.000000000000000000e+00 -3.943163291999999931e+00 7.150655817999999719e+00 0.000000000000000000e+00 6.076150750000000045e-01 -3.518514660000000016e-01 1.061121810899999929e+01
7.963746065999999679e+00 0.000000000000000000e+00 0.000000000000000000e+00 -3.942921939000000098e+00 7.322965559000000013e+00 0.000000000000000000e+00 6.903175219999999612e-01 2.427911299999999939e-01 1.069901006399999943e+01
8.022401576000000034e+00 0.000000000000000000e+00 0.000000000000000000e+00 -3.971962807000000151e+00 7.376901518000000380e+00 0.000000000000000000e+00 6.954019289999999742e-01 2.445793629999999941e-01 1.077781165899999927e+01
8.136491410999999729e+00 0.000000000000000000e+00 0.000000000000000000e+00 -4.121544494000000114e+00 7.270130467000000429e+00 0.000000000000000000e+00 6.462308519999999668e-01 -4.202225099999999658e-02 1.076315810999999911e+01
7.940023902000000078e+00 0.000000000000000000e+00 0.000000000000000000e+00 -3.763570792999999970e+00 6.969206898000000372e+00 0.000000000000000000e+00 5.805823380000000311e-01 5.534656599999999982e-02 1.011545716800000072e+01
8.231278501000000247e+00 0.000000000000000000e+00 0.000000000000000000e+00 -4.169558950999999958e+00 7.354824774999999981e+00 0.000000000000000000e+00 6.537591999999999848e-01 -4.251179399999999858e-02 1.088854488700000012e+01
8.191104031000000063e+00 0.000000000000000000e+00 0.000000000000000000e+00 -4.149208549999999995e+00 7.318928020999999617e+00 0.000000000000000000e+00 6.505683920000000509e-01 -4.230430599999999985e-02 1.083540107500000005e+01
7.941911909999999963e+00 0.000000000000000000e+00 0.000000000000000000e+00 -3.932111653000000207e+00 7.302888227000000398e+00 0.000000000000000000e+00 6.884248830000000430e-01 2.421254710000000088e-01 1.066967664999999954e+01
8.028886955999999131e+00 0.000000000000000000e+00 0.000000000000000000e+00 -3.990322809999999887e+00 7.236176365000000388e+00 0.000000000000000000e+00 6.148820409999999903e-01 -3.560595460000000045e-01 1.073812635200000010e+01
7.963304238000000090e+00 0.000000000000000000e+00 0.000000000000000000e+00 -3.942703186000000137e+00 7.322559282000000280e+00 0.000000000000000000e+00 6.902792239999999691e-01 2.427776600000000062e-01 1.069841648399999912e+01
8.220549129000000121e+00 0.000000000000000000e+00 0.000000000000000000e+00 -4.164123981000000363e+00 7.345237850000000179e+00 0.000000000000000000e+00 6.529070329999999700e-01 -4.245638100000000137e-02 1.087435179999999946e+01
8.155990197999999580e+00 0.000000000000000000e+00 0.000000000000000000e+00 -4.131421616999999991e+00 7.287553052999999892e+00 0.000000000000000000e+00 6.477795189999999703e-01 -4.212295499999999665e-02 1.078895160199999914e+01
8.078224184999999835e+00 0.000000000000000000e+00 0.000000000000000000e+00 -3.884081501999999908e+00 7.441102242000000366e+00 0.000000000000000000e+00 4.595237990000000106e-01 2.037033259999999901e-01 1.045988006800000036e+01
8.060043442999999641e+00 0.000000000000000000e+00 0.000000000000000000e+00 -4.082819731999999924e+00 7.201822560000000095e+00 0.000000000000000000e+00 6.401590660000000543e-01 -4.162742199999999726e-02 1.066203079099999940e+01
7.898119356999999674e+00 0.000000000000000000e+00 0.000000000000000000e+00 -3.875206209999999984e+00 7.049559848000000351e+00 0.000000000000000000e+00 4.424312750000000127e-01 -5.228211499999999706e-02 1.033412691400000050e+01
8.063047943000000828e+00 0.000000000000000000e+00 0.000000000000000000e+00 -3.876784631000000036e+00 7.427122935999999953e+00 0.000000000000000000e+00 4.586605100000000212e-01 2.033206369999999985e-01 1.044022950299999941e+01
8.050791243999999125e+00 0.000000000000000000e+00 0.000000000000000000e+00 -4.001209148000000049e+00 7.255917991999999650e+00 0.000000000000000000e+00 6.165595529999999824e-01 -3.570309420000000178e-01 1.076742194700000077e+01
8.015533439000000371e+00 0.000000000000000000e+00 0.000000000000000000e+00 -3.799362308000000077e+00 7.035483976000000084e+00 0.000000000000000000e+00 5.861036689999999938e-01 5.587291099999999733e-02 1.021165505099999926e+01
7.970431815999999614e+00 0.000000000000000000e+00 0.000000000000000000e+00 -3.777984142000000212e+00 6.995896873000000404e+00 0.000000000000000000e+00 5.828057939999999881e-01 5.555852700000000338e-02 1.015419634000000038e+01
8.106961779000000590e+00 0.000000000000000000e+00 0.000000000000000000e+00 -4.013829320000000145e+00 7.454657820999999629e+00 0.000000000000000000e+00 7.027318200000000070e-01 2.471573539999999958e-01 1.089141528899999933e+01
8.207402781000000758e+00 0.000000000000000000e+00 0.000000000000000000e+00 -3.946191710999999991e+00 7.560092644000000028e+00 0.000000000000000000e+00 4.668720279999999945e-01 2.069607390000000047e-01 1.062714363899999981e+01
8.005173298000000770e+00 0.000000000000000000e+00 0.000000000000000000e+00 -3.848957990000000162e+00 7.373812809000000357e+00 0.000000000000000000e+00 4.553683530000000035e-01 2.018612489999999926e-01 1.036529201199999939e+01
7.975913764000000405e+00 0.000000000000000000e+00 0.000000000000000000e+00 -3.948946274999999950e+00 7.334154217000000031e+00 0.000000000000000000e+00 6.913722490000000498e-01 2.431620869999999990e-01 1.071535693400000078e+01
8.287750504999999990e+00 0.000000000000000000e+00 0.000000000000000000e+00 -4.198164878000000044e+00 7.405283728999999759e+00 0.000000000000000000e+00 6.582444200000000523e-01 -4.280345299999999825e-02 1.096324749300000079e+01
7.999461657000000336e+00 0.000000000000000000e+00 0.000000000000000000e+00 -3.846211783000000217e+00 7.368551639999999736e+00 0.000000000000000000e+00 4.550434509999999877e-01 2.017172230000000011e-01 1.035789644099999940e+01
7.983206762000000012e+00 0.000000000000000000e+00 0.000000000000000000e+00 -3.952557103999999821e+00 7.340860404999999922e+00 0.000000000000000000e+00 6.920044239999999514e-01 2.433844290000000132e-01 1.072515481800000003e+01
8.044931139999999203e+00 0.000000000000000000e+00 0.000000000000000000e+00 -3.983117395999999921e+00 7.397618302999999784e+00 0.000000000000000000e+00 6.973548489999999989e-01 2.452662230000000054e-01 1.080807932799999982e+01
8.215369218999999390e+00 0.000000000000000000e+00 0.000000000000000000e+00 -3.950022044999999871e+00 7.567430776000000137e+00 0.000000000000000000e+00 4.673251930000000276e-01 2.071616229999999892e-01 1.063745877500000070e+01
7.936131944000000438e+00 0.000000000000000000e+00 0.000000000000000000e+00 -3.929249940000000052e+00 7.297573329999999636e+00 0.000000000000000000e+00 6.879238610000000254e-01 2.419492570000000009e-01 1.066191147199999989e+01
7.969121417000000207e+00 0.000000000000000000e+00 0.000000000000000000e+00 -3.777363012999999992e+00 6.994746694999999903e+00 0.000000000000000000e+00 5.827099770000000456e-01 5.554939200000000299e-02 1.015252691300000087e+01
8.348634372999999442e+00 0.000000000000000000e+00 0.000000000000000000e+00 -3.957252127999999924e+00 7.327857067000000058e+00 0.000000000000000000e+00 6.104603360000000478e-01 5.819481800000000232e-02 1.063602004900000075e+01
8.069161311000000225e+00 0.000000000000000000e+00 0.000000000000000000e+00 -3.995113969999999792e+00 7.419898862000000150e+00 0.000000000000000000e+00 6.994551810000000369e-01 2.460049300000000105e-01 1.084063170299999967e+01
7.930263464000000262e+00 0.000000000000000000e+00 0.000000000000000000e+00 -3.926344402999999872e+00 7.292177041000000415e+00 0.000000000000000000e+00 6.874151659999999664e-01 2.417703439999999981e-01 1.065402737700000024e+01
8.204159607999999437e+00 0.000000000000000000e+00 0.000000000000000000e+00 -3.888771098999999953e+00 7.201047055000000086e+00 0.000000000000000000e+00 5.998961999999999906e-01 5.718774499999999816e-02 1.045196162400000084e+01
8.182826738999999350e+00 0.000000000000000000e+00 0.000000000000000000e+00 -4.066830229999999879e+00 7.374917317000000416e+00 0.000000000000000000e+00 6.266713229999999468e-01 -3.628863609999999906e-01 1.094401103400000075e+01
8.165351913000000295e+00 0.000000000000000000e+00 0.000000000000000000e+00 -4.058145314999999975e+00 7.359167819999999693e+00 0.000000000000000000e+00 6.253330350000000371e-01 -3.621113990000000005e-01 1.092063956400000002e+01
8.188399029999999357e+00 0.000000000000000000e+00 0.000000000000000000e+00 -4.147838328999999824e+00 7.316511043000000214e+00 0.000000000000000000e+00 6.503535510000000297e-01 -4.229033599999999782e-02 1.083182283000000012e+01
8.292039408000000833e+00 0.000000000000000000e+00 0.000000000000000000e+00 -4.200337423999999764e+00 7.409115954999999865e+00 0.000000000000000000e+00 6.585850600000000554e-01 -4.282560400000000322e-02 1.096892096300000041e+01
8.006945655000000883e+00 0.000000000000000000e+00 0.000000000000000000e+00 -3.795291698999999852e+00 7.027946209999999638e+00 0.000000000000000000e+00 5.854757219999999762e-01 5.581304900000000346e-02 1.020071435800000081e+01
7.974189223999999854e+00 0.000000000000000000e+00 0.000000000000000000e+00 -3.779765153000000044e+00 6.999194868000000014e+00 0.000000000000000000e+00 5.830805399999999805e-01 5.558471799999999824e-02 1.015898321599999932e+01
8.143208578999999503e+00 0.000000000000000000e+00 0.000000000000000000e+00 -4.047140171999999758e+00 7.339210750000000338e+00 0.000000000000000000e+00 6.236372169999999659e-01 -3.611294019999999882e-01 1.089102426200000018e+01
8.003321637000000877e+00 0.000000000000000000e+00 0.000000000000000000e+00 -3.977616954999999788e+00 7.213135169000000069e+00 0.000000000000000000e+00 6.129241539999999988e-01 -3.549257920000000177e-01 1.070393436200000004e+01
7.810282964999999855e+00 0.000000000000000000e+00 0.000000000000000000e+00 -3.866940984999999831e+00 7.181850436999999587e+00 0.000000000000000000e+00 6.770149549999999739e-01 2.381124920000000089e-01 1.049283783799999981e+01
8.079802443000000167e+00 0.000000000000000000e+00 0.000000000000000000e+00 -3.829825811000000080e+00 7.091894887999999675e+00 0.000000000000000000e+00 5.908030819999999794e-01 5.632090299999999855e-02 1.029353268300000046e+01
7.904839017999999662e+00 0.000000000000000000e+00 0.000000000000000000e+00 -3.928671510000000033e+00 7.124375966999999754e+00 0.000000000000000000e+00 6.053819889999999537e-01 -3.505583529999999892e-01 1.057222011500000036e+01
