2.592799999999999966e-02 4.399499999999999938e-02 2.263459999999999916e-01 -4.192509999999999848e-01 3.886600000000000055e-01 4.239160000000000150e-01 -1.233309999999999962e-01 -2.664159999999999862e-01 -5.525780000000000136e-01 5.600180000000000158e-01 5.086789999999999923e-01 -5.690119999999999623e-01 8.241300000000000292e-01 -1.510899999999999917e-02 2.953200000000000269e-01 -3.314600000000000185e-02 3.022340000000000027e-01 2.499089999999999923e-01 -6.221630000000000216e-01 -1.588029999999999997e-01 1.326130000000000086e-01 -2.550100000000000144e-01 2.675790000000000113e-01 5.055739999999999679e-01 -4.351470000000000060e-01 -7.918200000000000238e-02 3.255870000000000153e-01 -2.075609999999999955e-01 4.257239999999999913e-01 4.530830000000000135e-01 -3.092759999999999954e-01 -5.244959999999999622e-01 -3.639789999999999970e-01 -1.345959999999999934e-01 5.637999999999999956e-02 -7.889350000000000529e-01 -1.791560000000000097e-01 2.889129999999999754e-01 2.053059999999999885e-01 -6.036999999999999832e-03 -1.062450000000000061e-01 3.219009999999999927e-01 1.391779999999999962e-01 -6.599289999999999878e-01 -3.584579999999999989e-01 6.778440000000000021e-01 -1.320939999999999892e-01 -4.942259999999999986e-01 4.337199999999999944e-01 9.851100000000000134e-02 1.567999999999999949e-01 5.941959999999999464e-01 -1.923899999999999916e-02 -4.209910000000000041e-01 -1.971779999999999922e-01 -8.338430000000000009e-01 2.122829999999999995e-01 -3.331620000000000137e-01 4.146830000000000238e-01 3.954200000000000076e-02
1.445539999999999881e-01 5.568739999999999801e-01 4.082790000000000030e-01 2.087680000000000091e-01 -1.836869999999999892e-01 -4.237799999999999900e-02 3.960350000000000259e-01 7.268000000000000155e-03 3.300930000000000253e-01 -3.232600000000000057e-02 3.025820000000000176e-01 3.951239999999999752e-01 1.580930000000000113e-01 -2.041590000000000071e-01 -4.702089999999999881e-01 2.371900000000000119e-01 -6.409700000000000120e-02 -1.585840000000000027e-01 5.663699999999999984e-02 5.016000000000000320e-02 8.235900000000000165e-02 1.257109999999999894e-01 -2.184480000000000033e-01 -6.749610000000000332e-01 3.131610000000000227e-01 -3.356540000000000079e-01 3.933849999999999847e-01 -5.074599999999999944e-02 5.302430000000000199e-01 -1.151729999999999976e-01 -9.376379999999999715e-01 -6.744379999999999820e-01 -6.865400000000000669e-02 -3.607130000000000059e-01 3.488890000000000047e-01 -2.581910000000000038e-01 -4.376909999999999967e-01 4.105079999999999840e-01 2.680770000000000097e-01 -4.360020000000000007e-01 -2.926889999999999770e-01 2.773669999999999747e-01 7.359780000000000211e-01 -1.064429999999999960e-01 8.383599999999999386e-02 2.434800000000000159e-02 -9.245399999999999452e-02 -1.055579999999999991e-01 2.957690000000000041e-01 -2.930940000000000212e-01 3.398889999999999967e-01 -2.545649999999999857e-01 5.202329999999999455e-01 -2.663849999999999829e-01 -8.380450000000000399e-01 1.205149999999999971e-01 -8.576999999999999555e-03 6.514839999999999520e-01 -3.821080000000000032e-01 -4.097370000000000179e-01
-2.391149999999999942e-01 7.465960000000000374e-01 -1.381789999999999963e-01 -2.644690000000000096e-01 -3.815649999999999875e-01 4.137029999999999874e-01 6.977090000000000236e-01 -1.535489999999999911e-01 -2.697160000000000113e-01 -9.860900000000000221e-01 1.332510000000000083e-01 -4.021660000000000235e-01 6.360770000000000035e-01 9.965599999999999459e-02 4.127770000000000050e-01 -7.543450000000000433e-01 3.289730000000000154e-01 6.464119999999999866e-01 7.167740000000000222e-01 -2.950070000000000192e-01 6.203370000000000273e-01 1.051999999999999984e-02 6.477079999999999504e-01 -8.963219999999999521e-01 2.200689999999999868e-01 -1.275840000000000030e-01 -3.004899999999999793e-01 6.871599999999999930e-02 5.041349999999999998e-01 2.195890000000000064e-01 2.592500000000000013e-02 5.037230000000000318e-01 7.341550000000000020e-01 7.723539999999999850e-01 -8.148290000000000255e-01 -8.080969999999999542e-01 -1.268450000000000133e-01 -7.178909999999999458e-01 -2.920690000000000230e-01 1.791250000000000064e-01 -2.793059999999999987e-01 -4.854490000000000194e-01 -6.376509999999999678e-01 5.907199999999999951e-02 -4.641589999999999883e-01 -5.487399999999999917e-02 3.519100000000000006e-02 -7.795100000000000640e-02 -1.053899999999999976e-02 -1.683099999999999874e-02 6.179999999999999513e-04 -5.716700000000000254e-02 -2.004759999999999875e-01 6.985240000000000338e-01 -4.701710000000000056e-01 -4.326200000000000184e-02 8.498799999999999411e-02 2.739969999999999906e-01 -2.800499999999999864e-02 3.034959999999999880e-01
1.179010000000000058e-01 2.682039999999999980e-01 -4.208959999999999924e-01 -4.529299999999999993e-02 7.535699999999999343e-02 -1.791560000000000097e-01 1.159299999999999914e-02 -4.463679999999999870e-01 -1.404789999999999928e-01 -8.552300000000000457e-01 -1.013799999999999944e-02 3.429329999999999878e-01 1.586970000000000047e-01 -2.410289999999999933e-01 5.086260000000000225e-01 -2.359439999999999871e-01 6.805250000000000465e-01 5.546210000000000306e-01 4.309230000000000005e-01 -1.780269999999999908e-01 -1.284680000000000044e+00 2.123899999999999955e-01 3.726349999999999940e-01 6.586200000000000387e-02 -2.752800000000000247e-01 8.859999999999999820e-02 -3.255430000000000268e-01 8.255280000000000395e-01 7.793300000000000227e-02 3.824649999999999994e-01 1.006399999999999934e-01 -1.668290000000000051e-01 1.235929999999999945e-01 7.884099999999999442e-02 3.530209999999999737e-01 -2.359410000000000118e-01 2.157910000000000106e-01 -2.974220000000000197e-01 -3.195009999999999795e-01 2.022430000000000061e-01 -1.293900000000000050e-01 -5.371289999999999676e-01 -6.673949999999999605e-01 -2.386040000000000105e-01 -3.621400000000000313e-02 -2.443889999999999951e-01 7.766000000000000333e-03 -4.196799999999999975e-01 3.995900000000000146e-02 4.170700000000000102e-02 5.397750000000000048e-01 8.809200000000000363e-02 -3.208099999999999841e-01 3.043230000000000102e-01 -3.591619999999999813e-01 -2.054500000000000076e-02 5.489770000000000483e-01 2.000959999999999961e-01 8.341400000000000203e-02 5.280430000000000401e-01
-1.363489999999999980e-01 4.238250000000000073e-01 -7.077360000000000317e-01 1.390339999999999909e-01 -9.740500000000000547e-02 -1.537459999999999938e-01 -3.751950000000000007e-01 -1.824929999999999886e-01 -2.687140000000000084e-01 -8.073569999999999913e-01 1.350629999999999886e-01 -7.259079999999999977e-01 1.559129999999999960e-01 -1.054449999999999971e-01 4.540080000000000227e-01 -6.216260000000000119e-01 4.056890000000000218e-01 1.303900000000000059e-01 -1.267157000000000089e+00 -1.049399999999999986e-02 2.066099999999999881e-01 6.759800000000000531e-02 -5.250240000000000462e-01 7.260739999999999972e-01 -2.809280000000000110e-01 -1.330359999999999876e-01 -6.912639999999999896e-01 4.907090000000000063e-01 -2.848280000000000256e-01 -2.722849999999999993e-01 3.056920000000000193e-01 1.210109999999999936e-01 5.550209999999999866e-01 1.989799999999999902e-01 1.361239999999999950e-01 3.615260000000000140e-01 -1.714519999999999933e-01 -5.136199999999999793e-02 -5.767759999999999554e-01 5.198739999999999473e-01 -1.219049999999999995e-01 -2.638380000000000170e-01 2.153120000000000034e-01 -2.223699999999999982e-02 -2.323649999999999882e-01 2.283330000000000082e-01 -1.557769999999999988e-01 -3.208090000000000108e-01 4.862400000000000055e-01 5.968879999999999741e-01 6.921720000000000095e-01 4.032810000000000006e-01 -1.744719999999999882e-01 9.662920000000000398e-01 -1.002860000000000001e-01 -1.788420000000000010e-01 -2.908060000000000089e-01 5.493850000000000122e-01 2.247210000000000041e-01 4.121529999999999916e-01
-8.672399999999999554e-02 -1.523670000000000024e-01 3.269009999999999971e-01 1.326027000000000067e+00 -3.423930000000000029e-01 -6.713000000000000217e-03 -1.347466999999999970e+00 -7.260360000000000147e-01 2.011769999999999947e-01 6.542670000000000430e-01 3.827130000000000254e-01 -2.223680000000000101e-01 3.092900000000000163e-02 3.943599999999999883e-02 7.921789999999999665e-01 6.280820000000000292e-01 1.624599999999999933e-01 -3.675109999999999766e-01 -1.765600000000000155e-02 -4.650170000000000137e-01 3.990719999999999823e-01 -5.381359999999999477e-01 -5.518899999999999917e-01 1.037632000000000110e+00 2.781879999999999908e-01 2.027199999999999835e-02 -8.339029999999999498e-01 -3.951450000000000240e-01 -3.417839999999999767e-01 -7.355040000000000466e-01 -1.054719999999999963e-01 -9.625000000000000222e-02 4.318389999999999729e-01 -4.263620000000000188e-01 6.179980000000000473e-01 4.643499999999999850e-01 6.003810000000000535e-01 -6.722329999999999695e-01 -5.377950000000000230e-01 -7.517139999999999933e-01 5.874700000000000477e-01 2.391199999999999923e-02 -8.329229999999999690e-01 1.302634999999999987e+00 -7.502609999999999557e-01 1.059981000000000062e+00 -8.054869999999999530e-01 -5.653280000000000527e-01 9.336189999999999767e-01 8.029640000000000111e-01 4.434040000000000203e-01 -5.377020000000000133e-01 3.339309999999999778e-01 3.259900000000000020e-01 5.501999999999999946e-02 -4.459679999999999755e-01 -1.182549999999999990e-01 -5.271940000000000515e-01 3.495489999999999986e-01 -3.088179999999999814e-01
-7.731559999999999544e-01 4.123080000000000078e-01 -9.285309999999999953e-01 -1.182939999999999964e-01 1.983149999999999913e-01 -4.575279999999999903e-01 8.248600000000000376e-01 1.521949999999999970e-01 -4.341220000000000079e-01 -2.044769999999999921e-01 8.578600000000000114e-02 -2.959499999999999909e-01 2.540049999999999808e-01 -6.166430000000000522e-01 3.276890000000000081e-01 -3.943639999999999923e-01 -3.960299999999999931e-02 -1.826490000000000058e-01 1.373759999999999981e-01 3.058800000000000061e-02 -1.759020000000000028e-01 2.419830000000000036e-01 -4.649710000000000232e-01 -2.863530000000000242e-01 -7.984900000000000331e-02 4.392999999999999683e-02 7.787809999999999455e-01 -3.465300000000000324e-02 7.731399999999999384e-02 4.136329999999999729e-01 -1.582679999999999920e-01 2.281000000000000041e-02 3.784449999999999759e-01 -2.820610000000000062e-01 2.182300000000000073e-01 -3.673170000000000046e-01 -1.489109999999999878e-01 6.512900000000000633e-02 4.784299999999999664e-02 -2.402539999999999953e-01 1.355689999999999951e-01 1.454789999999999972e-01 -1.510539999999999938e-01 1.944160000000000055e-01 -5.986879999999999979e-01 -9.322099999999999831e-02 1.240590000000000026e-01 1.528599999999999924e-02 -2.107219999999999926e-01 -6.637610000000000454e-01 4.009759999999999991e-01 5.023180000000000422e-01 -2.948609999999999842e-01 4.521109999999999851e-01 5.431960000000000122e-01 7.110600000000000254e-01 3.681969999999999965e-01 3.855480000000000018e-01 -3.918699999999999961e-01 3.986000000000000099e-01
-3.514129999999999754e-01 2.874490000000000101e-01 3.185779999999999723e-01 -3.006079999999999863e-01 4.016689999999999983e-01 6.060000000000000282e-03 7.219309999999999894e-01 -3.498100000000000098e-01 -2.672080000000000011e-01 -3.868139999999999912e-01 -2.115859999999999963e-01 -4.488530000000000020e-01 1.233970000000000067e-01 1.618700000000000000e-02 -1.202710000000000029e-01 3.989739999999999953e-01 -2.740239999999999898e-01 -4.654619999999999869e-01 8.431189999999999518e-01 1.781359999999999888e-01 3.433280000000000221e-01 5.153269999999999795e-01 -3.750089999999999812e-01 9.964599999999999846e-02 1.633249999999999980e-01 -8.096899999999999931e-02 4.537599999999999967e-02 -1.901899999999999979e-01 -9.583300000000000152e-02 1.363209999999999977e-01 -2.128700000000000037e-02 -1.195360000000000034e-01 1.978870000000000073e-01 -2.316920000000000091e-01 -1.154180000000000067e-01 -2.355959999999999999e-01 -3.948070000000000190e-01 -3.235870000000000135e-01 -2.759599999999999831e-01 -6.027759999999999785e-01 -4.458529999999999993e-01 6.859999999999999432e-02 -3.459969999999999990e-01 6.184269999999999490e-01 -3.003979999999999984e-01 -4.521370000000000111e-01 3.434159999999999990e-01 1.084620000000000029e-01 1.200340000000000018e-01 -4.028430000000000066e-01 -5.688700000000000007e-02 6.625020000000000353e-01 3.860879999999999868e-01 1.601809999999999901e-01 -4.803930000000000144e-01 7.094439999999999635e-01 2.975559999999999872e-01 2.095059999999999978e-01 -1.463480000000000059e-01 3.886390000000000122e-01
1.738429999999999975e-01 -8.117729999999999668e-01 -5.279099999999999904e-01 -3.423800000000000177e-01 1.194302999999999892e+00 -3.370879999999999987e-01 -2.820610000000000062e-01 2.665750000000000064e-01 4.191000000000000281e-02 -8.105800000000000505e-02 4.760329999999999839e-01 1.416399999999999951e-02 3.922189999999999843e-01 -1.532100000000000128e-01 9.720199999999999674e-02 -3.462200000000000000e-02 5.507700000000000096e-02 1.225070000000000048e-01 4.061190000000000078e-01 -2.930119999999999947e-01 4.622020000000000017e-01 4.076949999999999741e-01 1.079585999999999935e+00 1.182946999999999971e+00 -5.640849999999999476e-01 1.352659999999999973e-01 -3.541960000000000108e-01 3.123389999999999778e-01 -2.719829999999999748e-01 -1.581349999999999978e-01 6.551820000000000421e-01 -6.924909999999999677e-01 -3.904630000000000045e-01 -1.043099999999999930e-02 1.214910000000000018e-01 1.658489999999999964e-01 -7.093570000000000153e-01 8.289400000000000102e-01 -1.593289999999999984e-01 -7.465469999999999606e-01 -7.412119999999999820e-01 -5.373930000000000096e-01 4.567880000000000273e-01 -3.201470000000000149e-01 -1.644760000000000111e-01 -1.840140000000000109e-01 6.930699999999999361e-02 -1.498639999999999972e-01 -6.011549999999999949e-01 -5.842199999999999616e-01 4.113550000000000262e-01 9.562600000000000267e-02 -3.699080000000000146e-01 4.112080000000000179e-01 7.829279999999999573e-01 -5.306400000000000006e-02 2.384969999999999868e-01 -1.270290000000000030e-01 6.444400000000000128e-02 -3.689859999999999807e-01
9.390400000000000136e-02 2.930639999999999912e-01 -2.291620000000000046e-01 2.564100000000000060e-02 -7.789200000000000290e-02 1.045566999999999913e+00 6.546200000000000629e-02 1.238700000000000044e-02 8.210969999999999658e-01 -8.702440000000000175e-01 -7.306899999999999507e-02 7.763430000000000053e-01 1.025117000000000056e+00 4.228549999999999809e-01 -9.078709999999999836e-01 6.397230000000000416e-01 1.339839999999999920e-01 -1.998070000000000124e-01 1.890950000000000131e-01 -4.750219999999999998e-01 -1.281157000000000101e+00 -3.597509999999999875e-01 -5.797520000000000451e-01 -4.957289999999999752e-01 -3.430899999999999922e-02 4.044600000000000278e-02 2.277889999999999915e-01 3.419200000000000017e-01 8.675599999999999978e-02 5.368099999999999955e-02 -1.621500000000000025e-02 5.491399999999999754e-02 -1.911289999999999933e-01 -3.632659999999999778e-01 2.308369999999999866e-01 7.624499999999999333e-02 -3.317849999999999966e-01 3.607049999999999979e-01 2.368429999999999980e-01 -4.615679999999999783e-01 -4.040050000000000030e-01 7.315490000000000048e-01 -3.984960000000000169e-01 3.349559999999999760e-01 1.675909999999999900e-01 5.609999999999999709e-02 -6.231970000000000010e-01 -1.854740000000000000e-01 -8.053949999999999720e-01 6.674130000000000340e-01 -4.333850000000000202e-01 2.339970000000000105e-01 -7.424509999999999721e-01 -2.645000000000000216e-03 5.392519999999999536e-01 4.523329999999999851e-01 -6.618699999999999584e-02 4.308199999999999807e-01 -1.152610000000000023e-01 -1.441580000000000084e-01
-8.433159999999999545e-01 -2.340210000000000068e-01 -2.742800000000000099e-02 -1.549129999999999951e-01 -4.599489999999999967e-01 3.664649999999999852e-01 -1.215149999999999980e-01 -1.777779999999999916e-01 -2.088500000000000079e-02 6.503299999999999359e-02 3.643859999999999877e-01 -4.107500000000000040e-01 -4.822500000000000120e-01 2.342380000000000018e-01 2.156099999999999961e-01 -2.613150000000000195e-01 -5.372620000000000173e-01 2.194699999999999984e-01 -2.515879999999999783e-01 -6.455600000000000227e-02 1.491400999999999977e+00 -2.283290000000000042e-01 -3.827450000000000019e-01 3.475659999999999861e-01 1.635810000000000042e-01 -2.948520000000000030e-01 4.526149999999999896e-01 -2.995840000000000169e-01 -1.585550000000000015e-01 5.756300000000000305e-02 6.022999999999999882e-02 2.553790000000000227e-01 1.305350000000000121e-01 -8.398600000000000509e-02 4.543969999999999954e-01 -5.785280000000000422e-01 -1.667359999999999953e-01 2.735960000000000059e-01 -8.914950000000000374e-01 3.825270000000000059e-01 -5.635909999999999531e-01 -4.472000000000000280e-02 7.967060000000000253e-01 6.343779999999999974e-01 -8.163040000000000296e-01 2.491659999999999986e-01 5.328559999999999963e-01 -7.216559999999999642e-01 -1.112900000000000000e-01 1.921399999999999844e-02 3.668899999999999939e-01 5.484620000000000051e-01 -7.939799999999999636e-02 -2.194629999999999914e-01 7.978490000000000304e-01 -4.240070000000000228e-01 -1.128989999999999994e-01 -5.873400000000000148e-02 6.082680000000000309e-01 1.960139999999999938e-01
-6.639159999999999506e-01 -8.521199999999999608e-02 6.195030000000000259e-01 -8.388430000000000053e-01 -1.139712000000000058e+00 -4.882239999999999913e-01 1.254715000000000025e+00 5.318140000000000089e-01 2.179169999999999996e-01 -1.789479999999999960e-01 5.780960000000000543e-01 6.707419999999999494e-01 -4.747350000000000181e-01 -1.068120000000000042e-01 4.106299999999999950e-01 -4.669650000000000190e-01 -2.567920000000000202e-01 1.367977999999999916e+00 4.064099999999999935e-01 -4.313279999999999892e-01 1.170250000000000012e+00 1.866059999999999941e-01 4.423659999999999815e-01 4.031350000000000211e-01 -5.632829999999999782e-01 -3.127860000000000085e-01 -2.975539999999999852e-01 8.031800000000000050e-02 -5.535099999999999465e-01 -7.246529999999999916e-01 1.355040000000000133e-01 -4.097970000000000224e-01 -5.696120000000000072e-01 -4.205019999999999869e-01 4.708979999999999833e-01 -5.795639999999999681e-01 -9.945299999999999974e-02 -1.052199999999999941e-01 -1.235390999999999906e+00 2.698889999999999900e-01 -3.549979999999999802e-01 -1.147113000000000049e+00 5.326049999999999951e-01 2.827390000000000181e-01 -4.497360000000000246e-01 -5.530000000000000193e-03 4.566069999999999851e-01 -5.604630000000000445e-01 2.128569999999999907e-01 -2.416480000000000017e-01 -6.285999999999999921e-02 -6.235779999999999657e-01 6.008350000000000080e-01 3.202439999999999731e-01 -1.976920000000000066e-01 2.630430000000000268e-01 1.580739999999999923e-01 1.454541000000000084e+00 3.714189999999999992e-01 7.766960000000000530e-01
-5.429359999999999742e-01 3.639430000000000165e-01 -3.005369999999999986e-01 -2.835100000000000120e-02 -2.588659999999999850e-01 3.856049999999999756e-01 8.858829999999999760e-01 4.139539999999999886e-01 3.972599999999999743e-02 -5.541000000000000092e-02 -4.209309999999999996e-01 -4.625500000000000167e-01 5.553780000000000383e-01 -5.951140000000000319e-01 5.025600000000000206e-02 2.462800000000000059e-02 2.508489999999999887e-01 1.043879999999999947e-01 4.682979999999999920e-01 -3.919309999999999738e-01 2.672399999999999776e-01 -9.338699999999999779e-02 -2.098980000000000012e-01 -4.998889999999999723e-01 -6.447340000000000293e-01 6.750599999999999656e-02 2.965329999999999910e-01 -2.263880000000000059e-01 -4.215329999999999910e-01 -4.329239999999999755e-01 -3.041400000000000006e-02 1.326499999999999901e-01 6.576429999999999776e-01 -1.888299999999999979e-01 4.660199999999999759e-02 -3.978909999999999947e-01 -4.175189999999999735e-01 2.753539999999999877e-01 2.511970000000000036e-01 4.444290000000000185e-01 -3.528699999999999892e-02 -2.891210000000000169e-01 -1.041310000000000013e-01 5.271399999999999697e-02 5.393919999999999826e-01 -4.753589999999999760e-01 3.679189999999999960e-01 -1.637419999999999987e-01 -2.714420000000000166e-01 1.492600000000000003e-02 -4.257679999999999798e-01 6.660949999999999926e-01 3.946899999999999714e-02 4.394270000000000120e-01 2.986070000000000113e-01 4.879539999999999988e-01 -1.110010000000000024e-01 -2.644150000000000111e-01 -1.802829999999999988e-01 5.201599999999999974e-02
1.956390000000000073e-01 -3.998100000000000265e-02 1.929929999999999979e-01 -3.385090000000000043e-01 6.006200000000000427e-01 4.718789999999999929e-01 -7.445300000000000251e-01 -5.265600000000000142e-02 -4.207549999999999901e-01 1.057120999999999977e+00 -2.581309999999999993e-01 8.014100000000000390e-02 2.129570000000000074e-01 -3.797329999999999872e-01 -2.730000000000000135e-02 8.256649999999999823e-01 -8.853500000000000258e-02 4.949699999999999933e-02 -6.392689999999999761e-01 5.553500000000000103e-01 1.000690000000000052e-01 5.208009999999999584e-01 -6.432130000000000347e-01 9.779309999999999947e-01 9.974700000000000233e-02 2.933839999999999781e-01 8.580879999999999619e-01 -3.401859999999999884e-01 4.096600000000000241e-02 1.813039999999999929e-01 -5.440899999999999903e-02 1.821639999999999926e-01 -8.737699999999999634e-02 4.469799999999999884e-01 -3.586059999999999803e-01 4.732390000000000208e-01 -2.348470000000000002e-01 1.830160000000000120e-01 3.151510000000000145e-01 -9.664359999999999618e-01 6.343999999999999639e-02 -8.076259999999999550e-01 4.294839999999999769e-01 9.249519999999999964e-01 -8.973229999999999817e-01 3.018970000000000264e-01 -8.501469999999999860e-01 -2.688340000000000174e-01 2.468839999999999923e-01 -5.225560000000000205e-01 -2.522599999999999842e-02 -4.678379999999999761e-01 -3.400299999999999850e-02 -1.183491000000000071e+00 -1.070910000000000056e-01 4.472479999999999789e-01 -4.646150000000000002e-01 -4.440609999999999835e-01 -6.357999999999999763e-02 4.822549999999999892e-01
1.976789999999999936e-01 5.794759999999999911e-01 4.120999999999999663e-03 6.731660000000000421e-01 1.275409999999999877e-01 -2.983469999999999733e-01 1.259989999999999999e-01 2.771399999999999975e-01 -3.374039999999999817e-01 -3.900179999999999758e-01 1.203399999999999956e-02 5.931410000000000293e-01 -4.353099999999999747e-01 -1.011902999999999997e+00 -7.026710000000000456e-01 2.997569999999999957e-01 -3.511199999999999738e-02 -1.332369999999999943e-01 1.270540000000000003e+00 2.491829999999999878e-01 8.278360000000000163e-01 -1.131420000000000065e-01 5.473489999999999744e-01 -1.225559999999999983e-01 -1.929140000000000021e-01 5.780699999999999728e-02 -2.227409999999999946e-01 -1.855370000000000075e-01 -1.420079999999999953e-01 2.421889999999999876e-01 2.083929999999999949e-01 2.074330000000000063e-01 3.191120000000000068e-01 1.827060000000000073e-01 2.586930000000000063e-01 1.045732000000000106e+00 -1.247554000000000052e+00 -3.663969999999999727e-01 -6.554100000000000481e-01 -1.771800000000000042e-01 4.121960000000000068e-01 -4.672720000000000207e-01 1.023680000000000007e-01 -7.964300000000000546e-02 1.965790000000000037e-01 -2.107930000000000081e-01 -1.755659999999999998e-01 -7.664539999999999687e-01 4.579130000000000145e-01 7.747600000000000320e-02 2.452249999999999985e-01 -5.426290000000000280e-01 -1.492759999999999920e-01 2.971340000000000092e-01 -9.920400000000000051e-02 4.509329999999999727e-01 -2.585370000000000168e-01 7.576099999999999501e-02 -1.297355000000000036e+00 1.935580000000000078e-01
4.105380000000000140e-01 1.873000000000000099e-03 -6.106009999999999494e-01 3.302359999999999740e-01 -9.451600000000000279e-02 -5.643810000000000215e-01 5.118299999999999933e-02 7.959499999999999909e-02 -2.648539999999999783e-01 2.468309999999999949e-01 -9.322580000000000311e-01 -6.929570000000000451e-01 -9.875899999999999956e-02 5.398900000000000227e-02 3.113489999999999869e-01 -5.328880000000000283e-01 1.782769999999999910e-01 5.669250000000000123e-01 -2.224790000000000101e-01 -1.956040000000000001e-01 -1.310369999999999868e-01 -4.771830000000000238e-01 1.319940000000000002e-01 4.707060000000000133e-01 1.004270000000000024e-01 3.122679999999999900e-01 -6.213330000000000242e-01 1.173280000000000017e-01 1.285799999999999998e-01 3.626400000000000179e-01 3.894199999999999745e-02 -9.190199999999999758e-02 -4.136700000000000099e-02 2.040109999999999979e-01 -1.205330000000000013e-01 -2.335039999999999893e-01 -7.619399999999999784e-02 3.735879999999999757e-01 9.352399999999999602e-02 7.388329999999999620e-01 -3.825970000000000204e-01 -2.581559999999999966e-01 6.744210000000000482e-01 -6.060400000000000231e-01 -1.826710000000000000e-01 1.108499999999999937e-02 3.838260000000000005e-01 -3.095910000000000051e-01 -4.893819999999999837e-01 1.585600000000000065e-01 1.680020000000000124e-01 -6.758599999999999330e-02 3.501870000000000260e-01 5.494120000000000115e-01 -2.180890000000000051e-01 1.211529999999999968e-01 3.743049999999999988e-01 -7.412760000000000460e-01 1.495599999999999985e-01 1.013589000000000073e+00
-2.096969999999999945e-01 -3.360870000000000246e-01 -2.640419999999999989e-01 5.825360000000000538e-01 -5.301580000000000181e-01 -5.558760000000000367e-01 -1.372819999999999874e-01 2.239899999999999947e-01 -1.424269999999999980e-01 -1.578835999999999906e+00 -3.217329999999999912e-01 -5.446239999999999970e-01 1.413003999999999927e+00 9.976030000000000175e-01 7.500430000000000152e-01 -1.169583000000000039e+00 1.857666000000000039e+00 1.078718999999999983e+00 4.115999999999999867e-03 -4.439500000000000113e-01 -2.966260000000000008e-01 -7.838680000000000092e-01 -5.929069999999999618e-01 4.690059999999999785e-01 4.330189999999999872e-01 -3.896519999999999984e-01 5.744489999999999874e-01 5.891340000000000465e-01 -2.243439999999999879e-01 -8.525399999999999645e-01 -1.558400000000000063e-01 -2.228320000000000023e-01 1.651779999999999915e-01 -4.626759999999999762e-01 3.018939999999999957e-01 1.423187999999999898e+00 -6.941850000000000520e-01 -9.676299999999999901e-01 -8.954900000000000360e-02 1.522758999999999974e+00 -8.408010000000000206e-01 -9.520669999999999966e-01 -6.150430000000000064e-01 -5.670599999999999946e-02 -8.651739999999999986e-01 3.999380000000000157e-01 8.598899999999999599e-02 -2.594440000000000079e-01 2.473150000000000071e-01 7.996100000000000430e-02 5.816899999999999848e-02 -2.637300000000000200e-01 1.628837000000000090e+00 1.188725999999999949e+00 4.848700000000000232e-01 -3.548899999999999971e-02 -3.156360000000000277e-01 3.940500000000000114e-01 -2.136510000000000076e-01 -5.694730000000000070e-01
3.878789999999999738e-01 -6.480339999999999989e-01 6.207249999999999712e-01 -6.022319999999999895e-01 1.181740000000000013e-01 3.361950000000000216e-01 -3.817940000000000222e-01 -1.015350000000000003e-01 4.384099999999999803e-02 5.975510000000000543e-01 9.433000000000000412e-03 1.405450000000000033e-01 -8.715599999999999736e-02 9.043299999999999950e-02 8.671500000000000041e-02 -1.240529999999999911e+00 -4.099340000000000206e-01 3.671699999999999964e-02 3.337339999999999751e-01 7.525789999999999980e-01 -6.905980000000000452e-01 6.817349999999999799e-01 6.300000000000000044e-02 -1.734100000000000086e-01 -1.546530000000000127e-01 -3.417669999999999875e-01 -3.840129999999999932e-01 -4.782640000000000224e-01 -1.700230000000000075e-01 5.384179999999999522e-01 3.722280000000000033e-01 -6.522100000000000120e-02 -3.161140000000000061e-01 9.689200000000000590e-02 -4.212699999999999778e-02 2.302549999999999875e-01 4.943440000000000056e-01 3.803909999999999791e-01 -6.762300000000000255e-02 6.728640000000000176e-01 -1.727299999999999947e-01 -8.244599999999999707e-01 -4.240740000000000065e-01 -4.907230000000000203e-01 -4.316429999999999989e-01 -2.617760000000000087e-01 3.708799999999999875e-01 -7.811099999999999988e-02 5.771720000000000184e-01 5.512580000000000258e-01 3.709529999999999772e-01 -1.268080000000000040e-01 -2.785999999999999848e-03 -3.194839999999999902e-01 -5.828250000000000375e-01 3.843699999999999894e-01 2.640839999999999854e-01 1.257149999999999934e-01 -2.756379999999999941e-01 6.170090000000000297e-01
-2.582999999999999879e-02 7.108290000000000441e-01 -1.690319999999999878e-01 9.430020000000000069e-01 3.904230000000000200e-01 5.671500000000000430e-01 -2.075289999999999913e-01 4.524070000000000036e-01 4.970470000000000166e-01 -1.230193000000000092e+00 5.306000000000000300e-02 -5.912629999999999830e-01 1.392584000000000044e+00 7.211880000000000512e-01 4.323690000000000033e-01 5.818839999999999568e-01 -3.057659999999999823e-01 -2.113056999999999963e+00 -5.964650000000000230e-01 -5.079179999999999806e-01 3.926129999999999898e-01 -1.421830000000000038e-01 -1.004428000000000099e+00 -4.041899999999999660e-02 -1.049279000000000073e+00 2.953529999999999767e-01 8.604450000000000154e-01 -1.059838999999999976e+00 -4.062540000000000040e-01 -8.130429999999999602e-01 -1.890299999999999966e-02 -1.493720000000000048e-01 -1.697569999999999912e-01 4.776670000000000083e-01 2.076240000000000030e-01 -3.655390000000000028e-01 3.554939999999999767e-01 -3.353450000000000042e-01 1.788599999999999912e-02 -4.309020000000000072e-01 -4.408770000000000189e-01 9.373979999999999535e-01 -9.378910000000000302e-01 4.475779999999999759e-01 -3.067750000000000199e-01 9.474740000000000384e-01 7.303579999999999517e-01 9.435000000000000678e-03 -1.260426000000000046e+00 -1.750770000000000104e-01 -2.911770000000000191e-01 1.022072000000000092e+00 -1.447019999999999973e-01 5.166159999999999641e-01 8.955990000000000339e-01 2.285099999999999978e-02 3.876680000000000126e-01 3.436649999999999983e-01 -5.619319999999999871e-01 2.414380000000000137e-01