9.079999999999999530e-03 2.276920000000000055e+00 1.619790000000000063e+00 -1.968190000000000106e+00 5.701520000000000366e+00 1.619790000000000063e+00 3.963309999999999889e+00 2.276920000000000055e+00 1.619790000000000063e+00 1.986040000000000028e+00 5.701520000000000366e+00 1.619790000000000063e+00 7.905020000000000380e+00 3.550000000000000204e-03 5.929079999999999906e+00 5.927749999999999631e+00 3.428139999999999965e+00 5.929079999999999906e+00 3.950790000000000024e+00 3.550000000000000204e-03 5.929079999999999906e+00 1.973519999999999941e+00 3.428139999999999965e+00 5.929079999999999906e+00 1.982369999999999965e+00 1.141229999999999967e+00 2.630700000000000260e-01 5.100000000000000366e-03 4.565820000000000434e+00 2.630700000000000260e-01 5.936600000000000321e+00 1.141229999999999967e+00 2.630700000000000260e-01 3.959330000000000016e+00 4.565820000000000434e+00 2.630700000000000260e-01 -1.068999999999999985e-02 2.289190000000000058e+00 4.199580000000000091e+00 -1.987959999999999949e+00 5.713779999999999859e+00 4.199580000000000091e+00 3.943540000000000045e+00 2.289190000000000058e+00 4.199580000000000091e+00 1.966269999999999962e+00 5.713779999999999859e+00 4.199580000000000091e+00 1.976620000000000044e+00 1.138260000000000050e+00 7.367849999999999788e+00 -6.499999999999999702e-04 4.562850000000000072e+00 7.367849999999999788e+00 5.930850000000000399e+00 1.138260000000000050e+00 7.367849999999999788e+00 3.953580000000000094e+00 4.562850000000000072e+00 7.367849999999999788e+00
1.056999999999999953e-02 2.275290000000000035e+00 1.617769999999999930e+00 -1.961580000000000101e+00 5.705020000000000202e+00 1.618959999999999955e+00 3.955449999999999910e+00 2.276429999999999954e+00 1.626039999999999930e+00 1.988510000000000000e+00 5.701329999999999565e+00 1.616840000000000055e+00 7.903929999999999900e+00 5.470000000000000036e-03 5.922159999999999869e+00 5.922990000000000421e+00 3.426800000000000068e+00 5.921450000000000102e+00 -5.340000000000000129e-03 6.847610000000000419e+00 5.929820000000000313e+00 1.974580000000000002e+00 3.428150000000000031e+00 5.941790000000000127e+00 1.974269999999999969e+00 1.154099999999999904e+00 2.768700000000000050e-01 1.119000000000000029e-02 4.558340000000000281e+00 2.613199999999999967e-01 5.932439999999999714e+00 1.145270000000000010e+00 2.585100000000000176e-01 3.961860000000000159e+00 4.557660000000000267e+00 2.605600000000000138e-01 -1.248999999999999937e-02 2.289870000000000072e+00 4.210200000000000387e+00 -1.972129999999999939e+00 5.708719999999999573e+00 4.195909999999999584e+00 3.940549999999999997e+00 2.289950000000000152e+00 4.205009999999999692e+00 1.964469999999999938e+00 5.716079999999999828e+00 4.201620000000000132e+00 1.972409999999999997e+00 1.135469999999999979e+00 7.361729999999999663e+00 1.069999999999999988e-03 4.574309999999999654e+00 7.366979999999999862e+00 5.928460000000000285e+00 1.139100000000000001e+00 7.363279999999999603e+00 3.958209999999999784e+00 4.558250000000000135e+00 7.360949999999999882e+00
1.201999999999999943e-02 2.273680000000000145e+00 1.615839999999999943e+00 -1.954990000000000006e+00 5.708510000000000417e+00 1.618160000000000043e+00 3.947610000000000063e+00 2.275949999999999918e+00 1.632339999999999902e+00 1.990990000000000038e+00 5.701159999999999783e+00 1.613920000000000021e+00 7.902829999999999799e+00 7.369999999999999815e-03 5.915320000000000356e+00 5.918239999999999945e+00 3.425450000000000106e+00 5.913929999999999687e+00 -6.919999999999999936e-03 6.842500000000000249e+00 5.930649999999999977e+00 1.975629999999999997e+00 3.428170000000000162e+00 5.954579999999999984e+00 1.966210000000000013e+00 1.166909999999999892e+00 2.907199999999999784e-01 1.728000000000000022e-02 4.550880000000000258e+00 2.596700000000000119e-01 5.928279999999999994e+00 1.149289999999999923e+00 2.540700000000000180e-01 3.964399999999999924e+00 4.549520000000000231e+00 2.581499999999999906e-01 -1.426999999999999970e-02 2.290550000000000086e+00 4.220670000000000144e+00 -1.956320000000000059e+00 5.703669999999999796e+00 4.192129999999999690e+00 3.937570000000000014e+00 2.290709999999999802e+00 4.210320000000000285e+00 1.962699999999999889e+00 5.718359999999999665e+00 4.203529999999999767e+00 1.968180000000000041e+00 1.132679999999999909e+00 7.355439999999999756e+00 2.759999999999999867e-03 4.585740000000000371e+00 7.365949999999999775e+00 5.926059999999999661e+00 1.139950000000000019e+00 7.358539999999999637e+00 3.962839999999999918e+00 4.553689999999999571e+00 7.353880000000000194e+00
1.339000000000000086e-02 2.272100000000000009e+00 1.614039999999999919e+00 -1.948420000000000041e+00 5.711969999999999992e+00 1.617359999999999909e+00 3.939820000000000100e+00 2.275490000000000013e+00 1.638689999999999980e+00 1.993460000000000010e+00 5.701010000000000133e+00 1.611050000000000093e+00 7.901720000000000077e+00 9.259999999999999135e-03 5.908579999999999721e+00 5.913529999999999731e+00 3.424080000000000013e+00 5.906509999999999927e+00 -8.479999999999999691e-03 6.837430000000000341e+00 5.931560000000000166e+00 1.976660000000000084e+00 3.428179999999999783e+00 5.967430000000000234e+00 1.958220000000000072e+00 1.179599999999999982e+00 3.045499999999999874e-01 2.333999999999999964e-02 4.543470000000000120e+00 2.580999999999999961e-01 5.924120000000000275e+00 1.153289999999999926e+00 2.497600000000000098e-01 3.966969999999999885e+00 4.541430000000000078e+00 2.558799999999999963e-01 -1.601999999999999952e-02 2.291220000000000034e+00 4.230940000000000367e+00 -1.940549999999999997e+00 5.698629999999999640e+00 4.188240000000000407e+00 3.934579999999999966e+00 2.291450000000000209e+00 4.215489999999999959e+00 1.960960000000000036e+00 5.720629999999999882e+00 4.205289999999999750e+00 1.963959999999999928e+00 1.129890000000000061e+00 7.349029999999999951e+00 4.409999999999999858e-03 4.597109999999999808e+00 7.364760000000000417e+00 5.923680000000000057e+00 1.140810000000000102e+00 7.353640000000000398e+00 3.967459999999999987e+00 4.549190000000000289e+00 7.346680000000000099e+00
1.463000000000000064e-02 2.270550000000000068e+00 1.612419999999999964e+00 -1.941880000000000051e+00 5.715390000000000192e+00 1.616559999999999997e+00 3.932100000000000151e+00 2.275049999999999795e+00 1.645089999999999941e+00 1.995949999999999891e+00 5.700879999999999725e+00 1.608219999999999983e+00 7.900590000000000224e+00 1.111999999999999968e-02 5.901919999999999611e+00 5.908870000000000289e+00 3.422699999999999854e+00 5.899210000000000065e+00 -1.003000000000000072e-02 6.832399999999999807e+00 5.932549999999999990e+00 1.977659999999999973e+00 3.428189999999999849e+00 5.980330000000000368e+00 1.950329999999999897e+00 1.192139999999999977e+00 3.183300000000000018e-01 2.937000000000000027e-02 4.536129999999999995e+00 2.566200000000000148e-01 5.919950000000000045e+00 1.157240000000000046e+00 2.456200000000000050e-01 3.969580000000000108e+00 4.533400000000000318e+00 2.537400000000000211e-01 -1.773999999999999883e-02 2.291889999999999983e+00 4.240960000000000285e+00 -1.924849999999999950e+00 5.693609999999999616e+00 4.184249999999999581e+00 3.931579999999999853e+00 2.292180000000000106e+00 4.220509999999999984e+00 1.959260000000000002e+00 5.722859999999999836e+00 4.206879999999999953e+00 1.959750000000000103e+00 1.127099999999999991e+00 7.342509999999999870e+00 6.000000000000000125e-03 4.608380000000000365e+00 7.363439999999999763e+00 5.921299999999999564e+00 1.141680000000000028e+00 7.348580000000000112e+00 3.972080000000000055e+00 4.544769999999999754e+00 7.339360000000000106e+00
1.569999999999999868e-02 2.269060000000000077e+00 1.611019999999999897e+00 -1.935359999999999969e+00 5.718759999999999621e+00 1.615739999999999954e+00 3.924479999999999968e+00 2.274659999999999904e+00 1.651569999999999983e+00 1.998459999999999903e+00 5.700779999999999959e+00 1.605429999999999913e+00 7.899449999999999861e+00 1.294000000000000011e-02 5.895349999999999646e+00 5.904289999999999594e+00 3.421300000000000008e+00 5.892009999999999970e+00 -1.154999999999999950e-02 6.827460000000000306e+00 5.933600000000000207e+00 1.978630000000000111e+00 3.428209999999999980e+00 5.993260000000000254e+00 1.942569999999999908e+00 1.204450000000000021e+00 3.319799999999999973e-01 3.534999999999999948e-02 4.528880000000000017e+00 2.552300000000000124e-01 5.915759999999999685e+00 1.161149999999999904e+00 2.416399999999999937e-01 3.972230000000000150e+00 4.525470000000000326e+00 2.517499999999999738e-01 -1.941000000000000017e-02 2.292559999999999931e+00 4.250700000000000145e+00 -1.909229999999999983e+00 5.688629999999999853e+00 4.180150000000000254e+00 3.928560000000000052e+00 2.292899999999999938e+00 4.225380000000000358e+00 1.957610000000000072e+00 5.725060000000000038e+00 4.208280000000000243e+00 1.955529999999999990e+00 1.124290000000000012e+00 7.335910000000000153e+00 7.510000000000000182e-03 4.619519999999999627e+00 7.361989999999999590e+00 5.918949999999999712e+00 1.142570000000000086e+00 7.343390000000000306e+00 3.976710000000000189e+00 4.540460000000000385e+00 7.331949999999999967e+00
1.655999999999999833e-02 2.267630000000000035e+00 1.609879999999999978e+00 -1.928879999999999928e+00 5.722039999999999793e+00 1.614870000000000028e+00 3.916990000000000194e+00 2.274300000000000210e+00 1.658120000000000038e+00 2.000989999999999824e+00 5.700709999999999944e+00 1.602689999999999948e+00 7.898279999999999745e+00 1.472000000000000045e-02 5.888849999999999696e+00 5.899790000000000312e+00 3.419869999999999965e+00 5.884929999999999772e+00 -1.302999999999999992e-02 6.822610000000000063e+00 5.934700000000000308e+00 1.979549999999999921e+00 3.428249999999999797e+00 6.006219999999999892e+00 1.934979999999999922e+00 1.216490000000000071e+00 3.454699999999999993e-01 4.127000000000000113e-02 4.521770000000000067e+00 2.539100000000000246e-01 5.911550000000000082e+00 1.165010000000000101e+00 2.378599999999999881e-01 3.974930000000000074e+00 4.517660000000000231e+00 2.499300000000000133e-01 -2.102000000000000049e-02 2.293229999999999880e+00 4.260130000000000194e+00 -1.893720000000000070e+00 5.683679999999999843e+00 4.175950000000000273e+00 3.925520000000000120e+00 2.293590000000000018e+00 4.230070000000000441e+00 1.956020000000000092e+00 5.727219999999999978e+00 4.209480000000000111e+00 1.951319999999999943e+00 1.121450000000000058e+00 7.329250000000000043e+00 8.940000000000000030e-03 4.630489999999999995e+00 7.360450000000000159e+00 5.916629999999999612e+00 1.143469999999999986e+00 7.338059999999999583e+00 3.981349999999999945e+00 4.536290000000000155e+00 7.324469999999999814e+00
1.716000000000000164e-02 2.266280000000000072e+00 1.609059999999999935e+00 -1.922430000000000083e+00 5.725240000000000329e+00 1.613960000000000061e+00 3.909640000000000004e+00 2.273989999999999956e+00 1.664760000000000018e+00 2.003550000000000164e+00 5.700680000000000192e+00 1.599990000000000023e+00 7.897079999999999878e+00 1.643999999999999975e-02 5.882410000000000139e+00 5.895380000000000287e+00 3.418410000000000171e+00 5.877959999999999852e+00 -1.447999999999999982e-02 6.817879999999999718e+00 5.935850000000000293e+00 1.980410000000000004e+00 3.428290000000000060e+00 6.019190000000000040e+00 1.927610000000000046e+00 1.228220000000000089e+00 3.587299999999999933e-01 4.712000000000000216e-02 4.514789999999999637e+00 2.526700000000000057e-01 5.907309999999999839e+00 1.168809999999999905e+00 2.342799999999999883e-01 3.977700000000000014e+00 4.509979999999999656e+00 2.482800000000000007e-01 -2.257999999999999938e-02 2.293909999999999894e+00 4.269199999999999662e+00 -1.878319999999999990e+00 5.678770000000000095e+00 4.171640000000000015e+00 3.922429999999999861e+00 2.294270000000000032e+00 4.234589999999999854e+00 1.954509999999999970e+00 5.729320000000000412e+00 4.210449999999999804e+00 1.947109999999999896e+00 1.118589999999999973e+00 7.322560000000000180e+00 1.026000000000000002e-02 4.641269999999999563e+00 7.358839999999999826e+00 5.914329999999999643e+00 1.144379999999999953e+00 7.332620000000000360e+00 3.985990000000000144e+00 4.532280000000000086e+00 7.316939999999999777e+00
1.744000000000000064e-02 2.265010000000000190e+00 1.608589999999999964e+00 -1.916020000000000056e+00 5.728349999999999831e+00 1.612980000000000080e+00 3.902460000000000040e+00 2.273740000000000094e+00 1.671510000000000051e+00 2.006139999999999812e+00 5.700689999999999813e+00 1.597320000000000073e+00 7.895839999999999748e+00 1.812000000000000069e-02 5.876030000000000086e+00 5.891079999999999650e+00 3.416910000000000114e+00 5.871080000000000076e+00 -1.587999999999999828e-02 6.813299999999999912e+00 5.937020000000000408e+00 1.981200000000000072e+00 3.428350000000000009e+00 6.032160000000000188e+00 1.920490000000000030e+00 1.239579999999999904e+00 3.717199999999999949e-01 5.288999999999999951e-02 4.507990000000000386e+00 2.514899999999999913e-01 5.903030000000000221e+00 1.172549999999999981e+00 2.309299999999999964e-01 3.980550000000000033e+00 4.502449999999999619e+00 2.468200000000000116e-01 -2.406000000000000152e-02 2.294589999999999907e+00 4.277899999999999814e+00 -1.863040000000000029e+00 5.673910000000000231e+00 4.167209999999999859e+00 3.919299999999999784e+00 2.294909999999999783e+00 4.238929999999999865e+00 1.953070000000000084e+00 5.731370000000000076e+00 4.211190000000000211e+00 1.942909999999999915e+00 1.115680000000000005e+00 7.315850000000000186e+00 1.146999999999999929e-02 4.651810000000000223e+00 7.357179999999999609e+00 5.912060000000000315e+00 1.145299999999999985e+00 7.327069999999999972e+00 3.990660000000000096e+00 4.528439999999999799e+00 7.309389999999999610e+00
1.735000000000000084e-02 2.263860000000000205e+00 1.608530000000000015e+00 -1.909629999999999939e+00 5.731340000000000323e+00 1.611909999999999954e+00 3.895459999999999923e+00 2.273540000000000116e+00 1.678360000000000074e+00 2.008779999999999788e+00 5.700739999999999696e+00 1.594689999999999941e+00 7.894560000000000244e+00 1.973000000000000101e-02 5.869699999999999918e+00 5.886899999999999800e+00 3.415369999999999795e+00 5.864289999999999559e+00 -1.722999999999999879e-02 6.808869999999999756e+00 5.938209999999999766e+00 1.981919999999999904e+00 3.428430000000000089e+00 6.045139999999999958e+00 1.913659999999999917e+00 1.250539999999999985e+00 3.844000000000000195e-01 5.859000000000000319e-02 4.501369999999999649e+00 2.503900000000000015e-01 5.898710000000000342e+00 1.176220000000000043e+00 2.278100000000000125e-01 3.983470000000000066e+00 4.495090000000000252e+00 2.455499999999999905e-01 -2.546999999999999958e-02 2.295290000000000052e+00 4.286200000000000010e+00 -1.847879999999999967e+00 5.669080000000000119e+00 4.162679999999999936e+00 3.916110000000000202e+00 2.295529999999999848e+00 4.243079999999999963e+00 1.951719999999999899e+00 5.733369999999999855e+00 4.211689999999999934e+00 1.938700000000000090e+00 1.112719999999999931e+00 7.309149999999999814e+00 1.255000000000000039e-02 4.662090000000000067e+00 7.355489999999999640e+00 5.909839999999999982e+00 1.146239999999999926e+00 7.321410000000000196e+00 3.995359999999999800e+00 4.524799999999999933e+00 7.301829999999999821e+00
-6.530000000000000214e-03 2.310490000000000155e+00 1.592270000000000074e+00 -1.952849999999999975e+00 5.781869999999999621e+00 1.590100000000000069e+00 3.944300000000000139e+00 2.312580000000000080e+00 1.590540000000000065e+00 1.993179999999999952e+00 5.782580000000000275e+00 1.589339999999999975e+00 3.853450000000000042e+00 6.938740000000000130e+00 5.815439999999999721e+00 5.796520000000000117e+00 3.469660000000000188e+00 5.819490000000000052e+00 3.791139999999999954e+00 -1.010000000000000047e-03 5.818819999999999659e+00 1.852100000000000080e+00 3.471519999999999939e+00 5.817309999999999981e+00 1.984390000000000098e+00 1.156879999999999908e+00 2.581100000000000061e-01 4.812999999999999917e-02 4.633659999999999890e+00 2.617399999999999727e-01 5.931930000000000369e+00 1.157960000000000100e+00 2.586100000000000065e-01 3.993479999999999919e+00 4.629330000000000389e+00 2.525999999999999912e-01 -9.334000000000000630e-02 2.317099999999999937e+00 4.122060000000000279e+00 -2.038390000000000146e+00 5.789419999999999789e+00 4.121019999999999683e+00 3.850849999999999884e+00 2.318839999999999790e+00 4.117359999999999687e+00 1.917939999999999978e+00 5.789780000000000371e+00 4.119640000000000413e+00 1.795320000000000027e+00 1.148360000000000047e+00 7.226689999999999614e+00 -1.430599999999999927e-01 4.620029999999999859e+00 7.229610000000000092e+00 5.741920000000000357e+00 1.150989999999999958e+00 7.231119999999999770e+00 3.806849999999999845e+00 4.617840000000000167e+00 7.224380000000000024e+00
-6.170000000000000137e-03 2.310509999999999842e+00 1.591139999999999999e+00 -1.952690000000000037e+00 5.773690000000000211e+00 1.590799999999999992e+00 3.947709999999999830e+00 2.312339999999999840e+00 1.597599999999999909e+00 1.999000000000000110e+00 5.784639999999999560e+00 1.594359999999999999e+00 3.852360000000000007e+00 6.931090000000000195e+00 5.817370000000000374e+00 5.790210000000000079e+00 3.460609999999999964e+00 5.817330000000000112e+00 -1.014000000000000040e-01 6.935909999999999798e+00 5.817829999999999835e+00 1.843099999999999961e+00 3.470969999999999889e+00 5.817779999999999951e+00 1.985349999999999948e+00 1.160379999999999967e+00 2.567300000000000137e-01 5.260000000000000092e-02 4.645380000000000287e+00 2.518099999999999783e-01 5.937090000000000423e+00 1.162700000000000067e+00 2.528900000000000037e-01 3.997850000000000126e+00 4.629430000000000156e+00 2.594400000000000039e-01 -1.000000000000000056e-01 2.323910000000000142e+00 4.125609999999999999e+00 -2.033920000000000172e+00 5.789789999999999992e+00 4.122560000000000002e+00 3.858060000000000045e+00 2.323659999999999837e+00 4.121039999999999814e+00 1.916679999999999939e+00 5.796960000000000335e+00 4.121520000000000294e+00 1.799220000000000041e+00 1.147799999999999931e+00 7.215090000000000003e+00 -1.469499999999999973e-01 4.625119999999999898e+00 7.222120000000000317e+00 5.735059999999999825e+00 1.149620000000000086e+00 7.237529999999999575e+00 3.819910000000000139e+00 4.621669999999999945e+00 7.220769999999999911e+00
-5.769999999999999955e-03 2.310569999999999791e+00 1.589930000000000065e+00 -1.952469999999999928e+00 5.765559999999999796e+00 1.591429999999999900e+00 3.951140000000000096e+00 2.312110000000000110e+00 1.604549999999999921e+00 2.004869999999999930e+00 5.786739999999999995e+00 1.599280000000000035e+00 3.851240000000000219e+00 6.923470000000000013e+00 5.819410000000000416e+00 5.783900000000000041e+00 3.451540000000000052e+00 5.815269999999999939e+00 -1.118900000000000033e-01 6.927710000000000257e+00 5.816930000000000156e+00 1.834079999999999933e+00 3.470410000000000217e+00 5.818349999999999689e+00 1.986259999999999915e+00 1.163829999999999920e+00 2.554400000000000004e-01 5.698999999999999899e-02 4.657029999999999781e+00 2.419600000000000084e-01 5.942199999999999704e+00 1.167389999999999928e+00 2.472399999999999876e-01 4.002130000000000187e+00 4.629500000000000171e+00 2.663400000000000212e-01 -1.066499999999999948e-01 2.330700000000000216e+00 4.129139999999999588e+00 -2.029469999999999885e+00 5.790160000000000196e+00 4.124089999999999812e+00 3.865260000000000140e+00 2.328460000000000196e+00 4.124740000000000073e+00 1.915389999999999926e+00 5.804120000000000168e+00 4.123409999999999798e+00 1.803129999999999900e+00 1.147280000000000078e+00 7.203400000000000247e+00 -1.507900000000000074e-01 4.630219999999999558e+00 7.214540000000000397e+00 5.728270000000000195e+00 1.148239999999999927e+00 7.243820000000000370e+00 3.832959999999999923e+00 4.625510000000000232e+00 7.217069999999999652e+00
-5.320000000000000076e-03 2.310690000000000133e+00 1.588640000000000052e+00 -1.952180000000000026e+00 5.757509999999999906e+00 1.591979999999999951e+00 3.954590000000000050e+00 2.311900000000000066e+00 1.611380000000000035e+00 2.010769999999999946e+00 5.788890000000000313e+00 1.604090000000000016e+00 3.850089999999999790e+00 6.915879999999999583e+00 5.821559999999999846e+00 5.777610000000000134e+00 3.442460000000000075e+00 5.813310000000000421e+00 -1.223400000000000043e-01 6.919539999999999580e+00 5.816119999999999735e+00 1.825069999999999970e+00 3.469850000000000101e+00 5.819020000000000081e+00 1.987139999999999906e+00 1.167240000000000055e+00 2.542599999999999860e-01 6.131999999999999951e-02 4.668569999999999887e+00 2.322200000000000097e-01 5.947230000000000238e+00 1.172029999999999905e+00 2.416899999999999882e-01 4.006310000000000038e+00 4.629509999999999792e+00 2.732700000000000129e-01 -1.132900000000000018e-01 2.337460000000000093e+00 4.132640000000000313e+00 -2.025040000000000173e+00 5.790510000000000268e+00 4.125569999999999737e+00 3.872399999999999842e+00 2.333219999999999850e+00 4.128449999999999953e+00 1.914099999999999913e+00 5.811270000000000380e+00 4.125320000000000320e+00 1.807039999999999980e+00 1.146800000000000042e+00 7.191679999999999851e+00 -1.545900000000000052e-01 4.635299999999999976e+00 7.206900000000000084e+00 5.721560000000000201e+00 1.146859999999999991e+00 7.249950000000000117e+00 3.845959999999999823e+00 4.629349999999999632e+00 7.213320000000000398e+00
-4.830000000000000092e-03 2.310890000000000111e+00 1.587250000000000050e+00 -1.951799999999999979e+00 5.749559999999999782e+00 1.592449999999999921e+00 3.958060000000000134e+00 2.311679999999999957e+00 1.618060000000000054e+00 2.016709999999999781e+00 5.791080000000000005e+00 1.608759999999999968e+00 3.848889999999999922e+00 6.908350000000000435e+00 5.823800000000000310e+00 5.771349999999999980e+00 3.433370000000000033e+00 5.811449999999999783e+00 -1.327299999999999869e-01 6.911400000000000432e+00 5.815380000000000216e+00 1.816100000000000048e+00 3.469300000000000050e+00 5.819790000000000241e+00 1.987989999999999924e+00 1.170579999999999954e+00 2.532300000000000106e-01 6.557999999999999940e-02 4.679999999999999716e+00 2.226299999999999946e-01 5.952160000000000117e+00 1.176590000000000025e+00 2.362499999999999878e-01 4.010369999999999990e+00 4.629459999999999908e+00 2.802299999999999791e-01 -1.199000000000000066e-01 2.344170000000000087e+00 4.136059999999999626e+00 -2.020649999999999835e+00 5.790849999999999831e+00 4.126999999999999780e+00 3.879459999999999908e+00 2.337940000000000129e+00 4.132189999999999586e+00 1.912789999999999990e+00 5.818380000000000329e+00 4.127259999999999707e+00 1.810929999999999929e+00 1.146379999999999955e+00 7.179949999999999832e+00 -1.583299999999999985e-01 4.640320000000000000e+00 7.199250000000000149e+00 5.714920000000000222e+00 1.145440000000000014e+00 7.255910000000000082e+00 3.858859999999999957e+00 4.633160000000000167e+00 7.209520000000000373e+00
-4.279999999999999950e-03 2.311179999999999790e+00 1.585779999999999967e+00 -1.951310000000000100e+00 5.741729999999999556e+00 1.592850000000000099e+00 3.961559999999999970e+00 2.311449999999999783e+00 1.624589999999999979e+00 2.022650000000000059e+00 5.793330000000000091e+00 1.613289999999999891e+00 3.847630000000000106e+00 6.900900000000000034e+00 5.826139999999999652e+00 5.765139999999999709e+00 3.424269999999999925e+00 5.809700000000000308e+00 -1.430299999999999905e-01 6.903340000000000032e+00 5.814709999999999823e+00 1.807180000000000009e+00 3.468780000000000197e+00 5.820649999999999658e+00 1.988830000000000098e+00 1.173869999999999969e+00 2.523500000000000187e-01 6.979000000000000481e-02 4.691290000000000404e+00 2.132000000000000006e-01 5.956999999999999851e+00 1.181089999999999973e+00 2.309499999999999886e-01 4.014300000000000423e+00 4.629340000000000011e+00 2.871900000000000008e-01 -1.264699999999999991e-01 2.350830000000000197e+00 4.139409999999999812e+00 -2.016309999999999825e+00 5.791170000000000151e+00 4.128350000000000186e+00 3.886420000000000208e+00 2.342610000000000081e+00 4.135930000000000106e+00 1.911459999999999937e+00 5.825459999999999638e+00 4.129229999999999734e+00 1.814769999999999994e+00 1.146030000000000104e+00 7.168249999999999567e+00 -1.620399999999999896e-01 4.645270000000000010e+00 7.191600000000000215e+00 5.708370000000000388e+00 1.143979999999999997e+00 7.261700000000000266e+00 3.871630000000000127e+00 4.636919999999999931e+00 7.205700000000000216e+00
-3.670000000000000085e-03 2.311580000000000190e+00 1.584209999999999896e+00 -1.950690000000000035e+00 5.734029999999999738e+00 1.593180000000000041e+00 3.965069999999999872e+00 2.311209999999999987e+00 1.630929999999999991e+00 2.028610000000000024e+00 5.795639999999999681e+00 1.617660000000000098e+00 3.846309999999999896e+00 6.893539999999999779e+00 5.828570000000000029e+00 5.759000000000000341e+00 3.415160000000000196e+00 5.808060000000000223e+00 -1.532100000000000128e-01 6.895349999999999646e+00 5.814090000000000202e+00 1.798329999999999984e+00 3.468300000000000161e+00 5.821600000000000108e+00 1.989670000000000050e+00 1.177089999999999970e+00 2.516599999999999948e-01 7.395999999999999797e-02 4.702460000000000306e+00 2.039600000000000024e-01 5.961730000000000196e+00 1.185510000000000064e+00 2.257899999999999907e-01 4.018069999999999808e+00 4.629150000000000098e+00 2.941500000000000226e-01 -1.330000000000000071e-01 2.357409999999999783e+00 4.142629999999999590e+00 -2.012039999999999829e+00 5.791470000000000340e+00 4.129579999999999806e+00 3.893240000000000034e+00 2.347210000000000019e+00 4.139680000000000248e+00 1.910130000000000106e+00 5.832499999999999574e+00 4.131240000000000023e+00 1.818529999999999980e+00 1.145759999999999890e+00 7.156620000000000203e+00 -1.656999999999999862e-01 4.650089999999999613e+00 7.183980000000000032e+00 5.701909999999999812e+00 1.142470000000000097e+00 7.267280000000000406e+00 3.884220000000000006e+00 4.640609999999999680e+00 7.201870000000000438e+00
-2.990000000000000036e-03 2.312089999999999979e+00 1.582559999999999967e+00 -1.949920000000000098e+00 5.726490000000000080e+00 1.593439999999999968e+00 3.968609999999999971e+00 2.310929999999999929e+00 1.637100000000000000e+00 2.034569999999999990e+00 5.798020000000000174e+00 1.621839999999999948e+00 3.844930000000000181e+00 6.886300000000000310e+00 5.831080000000000041e+00 5.752939999999999721e+00 3.406039999999999957e+00 5.806540000000000035e+00 -1.632599999999999885e-01 6.887470000000000425e+00 5.813500000000000334e+00 1.789560000000000040e+00 3.467870000000000008e+00 5.822630000000000194e+00 1.990510000000000002e+00 1.180239999999999956e+00 2.511599999999999944e-01 7.809000000000000663e-02 4.713470000000000049e+00 1.949400000000000022e-01 5.966330000000000133e+00 1.189850000000000074e+00 2.207800000000000040e-01 4.021679999999999922e+00 4.628860000000000419e+00 3.010800000000000143e-01 -1.394700000000000106e-01 2.363919999999999799e+00 4.145730000000000359e+00 -2.007859999999999978e+00 5.791739999999999888e+00 4.130690000000000417e+00 3.899910000000000210e+00 2.351739999999999942e+00 4.143430000000000391e+00 1.908779999999999921e+00 5.839509999999999756e+00 4.133289999999999687e+00 1.822189999999999976e+00 1.145569999999999977e+00 7.145069999999999588e+00 -1.693199999999999983e-01 4.654779999999999696e+00 7.176440000000000374e+00 5.695549999999999891e+00 1.140879999999999894e+00 7.272669999999999746e+00 3.896599999999999842e+00 4.644210000000000171e+00 7.198050000000000281e+00
-2.239999999999999804e-03 2.312739999999999796e+00 1.580810000000000048e+00 -1.948970000000000091e+00 5.719100000000000072e+00 1.593639999999999946e+00 3.972170000000000201e+00 2.310610000000000053e+00 1.643059999999999965e+00 2.040529999999999955e+00 5.800469999999999793e+00 1.625850000000000017e+00 3.843459999999999877e+00 6.879190000000000360e+00 5.833669999999999689e+00 5.746959999999999624e+00 3.396900000000000031e+00 5.805130000000000123e+00 -1.731399999999999884e-01 6.879699999999999704e+00 5.812929999999999708e+00 1.780890000000000084e+00 3.467499999999999805e+00 5.823739999999999917e+00 1.991370000000000084e+00 1.183319999999999927e+00 2.508900000000000019e-01 8.219999999999999529e-02 4.724350000000000271e+00 1.861399999999999999e-01 5.970819999999999794e+00 1.194099999999999939e+00 2.159500000000000031e-01 4.025100000000000122e+00 4.628479999999999706e+00 3.079899999999999860e-01 -1.458800000000000097e-01 2.370340000000000114e+00 4.148659999999999570e+00 -2.003779999999999895e+00 5.791979999999999684e+00 4.131630000000000358e+00 3.906379999999999963e+00 2.356189999999999785e+00 4.147170000000000023e+00 1.907419999999999893e+00 5.846479999999999677e+00 4.135390000000000121e+00 1.825720000000000010e+00 1.145499999999999963e+00 7.133639999999999759e+00 -1.729100000000000081e-01 4.659290000000000376e+00 7.168999999999999595e+00 5.689269999999999605e+00 1.139210000000000056e+00 7.277849999999999930e+00 3.908760000000000012e+00 4.647700000000000387e+00 7.194270000000000387e+00