-7.214139473999999552e+01
-7.214047576999999478e+01
-7.212867574000000559e+01
-7.210606420999999955e+01
-7.207292051000000299e+01
-7.202960908000000018e+01
-7.197675497000000178e+01
-7.191521421999999575e+01
-7.184597598000000573e+01
-7.177023805999999695e+01
-7.229146389999999656e+01
-7.228690774000000374e+01
-7.227120497999999316e+01
-7.224452999000000375e+01
-7.220708340999999564e+01
-7.215931962000000510e+01
-7.210178935999999794e+01
-7.203509875999999679e+01
-7.195991994000000602e+01
-7.187713924000000532e+01
-7.233701259000000050e+01
-7.232587150000000520e+01
-7.230274463000000651e+01
-7.226806114999999409e+01
-7.222238556000000642e+01
-7.216674358999999583e+01
-7.210180087000000526e+01
-7.202875208000000384e+01
-7.194875166999999294e+01
-7.186300531999999919e+01
-7.196837141000000315e+01
-7.194981767000000161e+01
-7.191932970000000580e+01
-7.187738960000000077e+01
-7.182427825999999982e+01
-7.176074907000000280e+01
-7.168741683999999736e+01
-7.160514336999999330e+01
-7.151491271999999810e+01
-7.141778225000000191e+01
-7.201360275999999772e+01
-7.199936918000000219e+01
-7.197470328999999367e+01
-7.194005520000000331e+01
-7.189601082999999448e+01
-7.184329653000000349e+01
-7.178266779000000497e+01
-7.171492274999999950e+01
-7.164093855000000133e+01
-7.156155647999999303e+01
