-1.875100000000000031e-02 2.614599999999999910e-02 1.130499999999999977e-01 -1.875100000000000031e-02 2.614599999999999910e-02 1.130359999999999976e-01 -1.874899999999999831e-02 2.614599999999999910e-02 1.130499999999999977e-01 -1.874999999999999931e-02 2.614800000000000110e-02 1.130789999999999990e-01 -3.937000000000000395e-03 -1.777099999999999860e-02 2.859990000000000032e-01 -3.937000000000000395e-03 -1.777199999999999960e-02 2.859990000000000032e-01 -3.938999999999999793e-03 -1.777300000000000060e-02 2.860070000000000112e-01 -3.938999999999999793e-03 -1.777199999999999960e-02 2.859900000000000220e-01 1.285799999999999964e-02 -2.427299999999999944e-02 1.942869999999999875e-01 1.285700000000000037e-02 -2.427500000000000144e-02 1.942859999999999865e-01 1.285500000000000011e-02 -2.427400000000000044e-02 1.942859999999999865e-01 1.285599999999999937e-02 -2.427599999999999897e-02 1.942859999999999865e-01 1.813499999999999834e-02 -6.662000000000000387e-03 -2.208970000000000100e-01 1.813899999999999887e-02 -6.658999999999999989e-03 -2.208930000000000060e-01 1.813599999999999934e-02 -6.662999999999999652e-03 -2.208940000000000070e-01 1.813400000000000081e-02 -6.661000000000000254e-03 -2.208940000000000070e-01 -8.155000000000000790e-03 2.247800000000000145e-02 -3.723279999999999923e-01 -8.156999999999999321e-03 2.248199999999999851e-02 -3.723299999999999943e-01 -8.155000000000000790e-03 2.248100000000000098e-02 -3.723310000000000231e-01 -8.151000000000000259e-03 2.248299999999999951e-02 -3.723259999999999903e-01
-1.285399999999999876e-01 5.236099999999999782e-02 2.480759999999999910e-01 -3.960899999999999838e-02 -2.818100000000000119e-02 6.489399999999999336e-02 6.308300000000000018e-02 4.421100000000000030e-02 1.310159999999999936e-01 -1.146000000000000100e-03 4.157099999999999684e-02 1.164779999999999982e-01 -1.608899999999999914e-02 -4.032899999999999680e-02 2.739630000000000121e-01 5.371499999999999886e-02 -2.706400000000000125e-02 3.022099999999999786e-01 1.773500000000000076e-02 3.942199999999999871e-02 2.636569999999999747e-01 -2.954499999999999835e-02 -7.758000000000000139e-03 2.351050000000000084e-01 7.091100000000000181e-02 -1.259720000000000006e-01 9.159599999999999687e-02 -1.738400000000000015e-02 3.412500000000000255e-02 1.913829999999999976e-01 1.159000000000000091e-03 -4.236199999999999688e-02 2.391600000000000115e-01 3.414400000000000074e-02 3.325499999999999984e-02 2.276400000000000090e-01 3.652899999999999897e-02 -6.722999999999999809e-03 -3.162249999999999783e-01 -3.575899999999999912e-02 1.372600000000000035e-02 -2.170829999999999982e-01 4.911999999999999700e-03 -1.331799999999999998e-02 -2.476410000000000000e-01 4.024500000000000299e-02 -2.483000000000000138e-02 -2.626979999999999871e-01 -3.905000000000000051e-03 1.103400000000000040e-02 -3.204049999999999954e-01 -4.934899999999999703e-02 -4.974699999999999955e-02 -3.457459999999999978e-01 4.780000000000000394e-03 2.311900000000000066e-02 -3.506250000000000200e-01 -5.790000000000000008e-03 7.328800000000000592e-02 -3.276919999999999833e-01
-2.463430000000000064e-01 8.227199999999999791e-02 3.893920000000000159e-01 -5.967999999999999694e-02 -8.105099999999999805e-02 2.335699999999999929e-02 1.454459999999999920e-01 6.321200000000000430e-02 1.553360000000000019e-01 1.595999999999999849e-02 5.646999999999999936e-02 1.248289999999999955e-01 -2.897100000000000022e-02 -6.313000000000000556e-02 2.667379999999999751e-01 1.091180000000000067e-01 -3.748300000000000243e-02 3.202720000000000011e-01 3.938900000000000040e-02 1.002350000000000046e-01 2.433279999999999887e-01 -5.634399999999999825e-02 1.944999999999999897e-03 1.869460000000000011e-01 1.357309999999999905e-01 -2.320800000000000085e-01 -1.969200000000000117e-02 -4.712899999999999728e-02 9.291399999999999659e-02 1.842169999999999919e-01 -9.865000000000000505e-03 -6.048400000000000304e-02 2.797890000000000099e-01 5.423800000000000149e-02 8.993900000000000505e-02 2.562400000000000233e-01 5.535899999999999849e-02 -5.968000000000000214e-03 -4.120820000000000038e-01 -8.852400000000000546e-02 3.293499999999999900e-02 -2.174069999999999891e-01 -8.786999999999999672e-03 -2.027599999999999889e-02 -2.780259999999999954e-01 6.253100000000000325e-02 -4.252399999999999930e-02 -3.073589999999999933e-01 5.580000000000000107e-04 -1.149000000000000065e-03 -2.695310000000000206e-01 -8.770000000000000018e-02 -1.242550000000000043e-01 -3.165390000000000148e-01 1.765900000000000108e-02 2.362099999999999964e-02 -3.300960000000000005e-01 -2.850000000000000103e-03 1.247550000000000048e-01 -2.828640000000000043e-01
-3.713380000000000014e-01 1.158160000000000023e-01 5.269819999999999505e-01 -7.903399999999999315e-02 -1.318269999999999997e-01 -2.140600000000000142e-02 2.272629999999999928e-01 8.264499999999999624e-02 1.755470000000000086e-01 3.228799999999999726e-02 7.059899999999999509e-02 1.288880000000000026e-01 -4.258300000000000279e-02 -8.601899999999999824e-02 2.594009999999999927e-01 1.621769999999999878e-01 -4.868100000000000205e-02 3.345910000000000273e-01 6.092499999999999999e-02 1.646179999999999866e-01 2.196200000000000097e-01 -8.412000000000000033e-02 1.135199999999999924e-02 1.374110000000000054e-01 2.073099999999999943e-01 -3.423539999999999917e-01 -1.334009999999999918e-01 -7.612399999999999722e-02 1.514530000000000043e-01 1.783589999999999898e-01 -1.992899999999999880e-02 -7.852099999999999358e-02 3.211030000000000273e-01 7.311199999999999644e-02 1.454590000000000050e-01 2.851940000000000031e-01 7.452699999999999603e-02 -4.314000000000000126e-03 -5.017239999999999478e-01 -1.400049999999999906e-01 5.088299999999999768e-02 -2.154079999999999884e-01 -2.295300000000000118e-02 -2.744299999999999864e-02 -3.049279999999999768e-01 8.484300000000000175e-02 -5.970799999999999719e-02 -3.478890000000000038e-01 5.301000000000000156e-03 -1.391500000000000029e-02 -2.158279999999999921e-01 -1.231330000000000063e-01 -2.010840000000000127e-01 -2.808539999999999925e-01 3.042699999999999919e-02 2.388699999999999851e-02 -3.067070000000000074e-01 4.339999999999999782e-04 1.767209999999999892e-01 -2.339289999999999980e-01
-5.038489999999999913e-01 1.529580000000000106e-01 6.636950000000000349e-01 -9.741299999999999959e-02 -1.808970000000000022e-01 -6.546899999999999942e-02 3.086760000000000059e-01 1.028000000000000025e-01 1.951739999999999864e-01 4.791000000000000120e-02 8.402199999999999946e-02 1.317550000000000110e-01 -5.704300000000000342e-02 -1.090649999999999953e-01 2.490459999999999896e-01 2.130370000000000041e-01 -6.067100000000000271e-02 3.429389999999999938e-01 8.234700000000000353e-02 2.326449999999999907e-01 1.890300000000000036e-01 -1.128780000000000061e-01 2.059400000000000119e-02 8.373099999999999987e-02 2.854160000000000030e-01 -4.558639999999999914e-01 -2.520689999999999875e-01 -1.042550000000000004e-01 2.095609999999999973e-01 1.711989999999999901e-01 -2.910799999999999846e-02 -9.639300000000000646e-02 3.606800000000000006e-01 9.064200000000000035e-02 1.995719999999999994e-01 3.120459999999999900e-01 9.395399999999999585e-02 -1.760999999999999979e-03 -5.870319999999999983e-01 -1.899430000000000007e-01 6.754799999999999693e-02 -2.132360000000000089e-01 -3.745199999999999918e-02 -3.488900000000000334e-02 -3.303499999999999770e-01 1.071389999999999981e-01 -7.629800000000000471e-02 -3.860580000000000123e-01 1.042000000000000044e-02 -2.731600000000000000e-02 -1.612909999999999899e-01 -1.558269999999999933e-01 -2.801409999999999734e-01 -2.404320000000000068e-01 4.301800000000000068e-02 2.388200000000000045e-02 -2.822049999999999836e-01 4.092000000000000151e-03 2.290550000000000086e-01 -1.827650000000000108e-01
-6.423039999999999861e-01 1.931740000000000124e-01 7.993949999999999667e-01 -1.149820000000000009e-01 -2.275969999999999938e-01 -1.079900000000000027e-01 3.893409999999999926e-01 1.232899999999999968e-01 2.142209999999999948e-01 6.264799999999999536e-02 9.672100000000000142e-02 1.343959999999999877e-01 -7.217400000000000204e-02 -1.323189999999999922e-01 2.391220000000000012e-01 2.616689999999999849e-01 -7.312899999999999956e-02 3.486870000000000247e-01 1.035390000000000060e-01 3.042019999999999724e-01 1.558140000000000081e-01 -1.423740000000000006e-01 2.959399999999999878e-02 3.048999999999999974e-02 3.694899999999999851e-01 -5.717569999999999597e-01 -3.742280000000000051e-01 -1.313729999999999898e-01 2.668719999999999981e-01 1.634130000000000027e-01 -3.725599999999999745e-02 -1.139850000000000030e-01 3.988389999999999991e-01 1.067870000000000069e-01 2.520870000000000055e-01 3.372419999999999862e-01 1.134389999999999982e-01 1.753000000000000001e-03 -6.681660000000000377e-01 -2.382319999999999993e-01 8.278499999999999748e-02 -2.108780000000000099e-01 -5.216699999999999809e-02 -4.245000000000000162e-02 -3.543689999999999896e-01 1.293340000000000045e-01 -9.224400000000000654e-02 -4.222350000000000270e-01 1.584699999999999998e-02 -4.117699999999999833e-02 -1.058240000000000014e-01 -1.858390000000000042e-01 -3.614629999999999788e-01 -1.952859999999999874e-01 5.546000000000000235e-02 2.363000000000000170e-02 -2.564609999999999945e-01 7.986000000000000043e-03 2.816560000000000175e-01 -1.293489999999999918e-01
-7.862869999999999582e-01 2.360780000000000101e-01 9.315719999999999557e-01 -1.320379999999999887e-01 -2.724579999999999780e-01 -1.510990000000000111e-01 4.697060000000000124e-01 1.439459999999999906e-01 2.301870000000000027e-01 7.673699999999999966e-02 1.086059999999999942e-01 1.346239999999999937e-01 -8.787399999999999378e-02 -1.559639999999999915e-01 2.269720000000000071e-01 3.082469999999999932e-01 -8.600199999999999512e-02 3.490849999999999786e-01 1.243879999999999986e-01 3.791419999999999790e-01 1.169720000000000065e-01 -1.725520000000000109e-01 3.834900000000000114e-02 -2.511599999999999944e-02 4.589059999999999806e-01 -6.893230000000000190e-01 -4.974299999999999833e-01 -1.574129999999999974e-01 3.231149999999999856e-01 1.567220000000000002e-01 -4.425199999999999967e-02 -1.312959999999999960e-01 4.372150000000000203e-01 1.214999999999999969e-01 3.029419999999999891e-01 3.624229999999999952e-01 1.329130000000000034e-01 6.191999999999999588e-03 -7.439740000000000242e-01 -2.848829999999999973e-01 9.665200000000000180e-02 -2.073240000000000083e-01 -6.707100000000000561e-02 -5.005300000000000027e-02 -3.756129999999999747e-01 1.513549999999999895e-01 -1.075320000000000026e-01 -4.551100000000000145e-01 2.171000000000000013e-02 -5.538900000000000073e-02 -4.754200000000000093e-02 -2.132590000000000041e-01 -4.447459999999999747e-01 -1.436900000000000122e-01 6.764299999999999480e-02 2.304799999999999904e-02 -2.274629999999999985e-01 1.204000000000000035e-02 3.342140000000000111e-01 -7.188999999999999557e-02
-9.338739999999999819e-01 2.809800000000000075e-01 1.061892000000000058e+00 -1.482539999999999969e-01 -3.144540000000000113e-01 -1.917860000000000120e-01 5.474310000000000009e-01 1.645880000000000121e-01 2.464310000000000112e-01 8.996400000000000230e-02 1.195080000000000031e-01 1.352379999999999971e-01 -1.040579999999999977e-01 -1.798379999999999979e-01 2.161659999999999970e-01 3.527140000000000275e-01 -9.897499999999999354e-02 3.476099999999999746e-01 1.447070000000000023e-01 4.567309999999999981e-01 7.635999999999999732e-02 -2.029900000000000038e-01 4.705800000000000261e-02 -7.848900000000000321e-02 5.525849999999999929e-01 -8.072880000000000056e-01 -6.224669999999999925e-01 -1.821099999999999941e-01 3.777099999999999902e-01 1.487209999999999921e-01 -5.002700000000000202e-02 -1.482159999999999866e-01 4.732540000000000080e-01 1.347180000000000044e-01 3.518140000000000156e-01 3.850819999999999799e-01 1.522380000000000122e-01 1.159499999999999940e-02 -8.159419999999999451e-01 -3.296560000000000046e-01 1.089799999999999935e-01 -2.040730000000000044e-01 -8.204400000000000581e-02 -5.763499999999999873e-02 -3.955779999999999852e-01 1.730669999999999986e-01 -1.220920000000000061e-01 -4.864629999999999788e-01 2.777900000000000161e-02 -6.973999999999999644e-02 9.365999999999999326e-03 -2.381240000000000023e-01 -5.301799999999999846e-01 -8.988400000000000556e-02 7.973700000000000232e-02 2.217500000000000027e-02 -1.990059999999999885e-01 1.605699999999999836e-02 3.866319999999999757e-01 -1.453300000000000078e-02
-1.082972999999999963e+00 3.270109999999999961e-01 1.187453000000000092e+00 -1.635270000000000057e-01 -3.535519999999999774e-01 -2.316290000000000016e-01 6.224600000000000133e-01 1.850890000000000035e-01 2.598940000000000139e-01 1.022639999999999938e-01 1.295769999999999977e-01 1.345679999999999932e-01 -1.206710000000000005e-01 -2.038280000000000092e-01 2.048099999999999921e-01 3.953659999999999952e-01 -1.117760000000000004e-01 3.429150000000000253e-01 1.643040000000000056e-01 5.368749999999999911e-01 3.262700000000000322e-02 -2.336370000000000113e-01 5.545900000000000135e-02 -1.316920000000000035e-01 6.490879999999999983e-01 -9.243040000000000145e-01 -7.470579999999999998e-01 -2.054850000000000010e-01 4.303919999999999968e-01 1.403760000000000008e-01 -5.462800000000000294e-02 -1.645770000000000011e-01 5.077289999999999859e-01 1.465750000000000108e-01 3.985000000000000209e-01 4.060090000000000088e-01 1.713480000000000003e-01 1.787100000000000147e-02 -8.826920000000000321e-01 -3.726539999999999853e-01 1.198199999999999960e-01 -1.996380000000000099e-01 -9.694300000000000139e-02 -6.511500000000000621e-02 -4.125519999999999743e-01 1.944539999999999880e-01 -1.359319999999999973e-01 -5.147260000000000169e-01 3.411100000000000243e-02 -8.419200000000000295e-02 6.591700000000000337e-02 -2.605700000000000238e-01 -6.174939999999999873e-01 -3.289600000000000163e-02 9.175999999999999435e-02 2.099399999999999877e-02 -1.698159999999999947e-01 1.992899999999999880e-02 4.387719999999999954e-01 4.371499999999999692e-02
-1.232191000000000036e+00 3.734779999999999767e-01 1.307606000000000046e+00 -1.784570000000000045e-01 -3.899520000000000208e-01 -2.698200000000000043e-01 6.951199999999999601e-01 2.049749999999999905e-01 2.704269999999999730e-01 1.137210000000000026e-01 1.386610000000000065e-01 1.332689999999999986e-01 -1.376219999999999943e-01 -2.279809999999999892e-01 1.928340000000000054e-01 4.363650000000000029e-01 -1.240369999999999945e-01 3.354269999999999752e-01 1.829780000000000018e-01 6.188299999999999912e-01 -1.418699999999999996e-02 -2.641669999999999852e-01 6.374499999999999611e-02 -1.852350000000000108e-01 7.468160000000000354e-01 -1.039552999999999949e+00 -8.698609999999999953e-01 -2.274960000000000038e-01 4.809510000000000174e-01 1.321549999999999947e-01 -5.796500000000000263e-02 -1.804169999999999940e-01 5.410880000000000134e-01 1.570709999999999884e-01 4.433030000000000026e-01 4.257520000000000193e-01 1.901720000000000077e-01 2.492099999999999871e-02 -9.462340000000000195e-01 -4.138290000000000024e-01 1.292699999999999960e-01 -1.956309999999999993e-01 -1.117289999999999950e-01 -7.238500000000000489e-02 -4.279000000000000026e-01 2.153940000000000021e-01 -1.489399999999999891e-01 -5.415630000000000166e-01 4.071899999999999825e-02 -9.859600000000000308e-02 1.231109999999999982e-01 -2.808820000000000205e-01 -7.062640000000000029e-01 2.803599999999999842e-02 1.034800000000000025e-01 1.948599999999999985e-02 -1.389269999999999949e-01 2.356499999999999914e-02 4.903790000000000093e-01 1.036040000000000016e-01
9.820399999999999963e-02 7.967200000000000670e-02 -2.331729999999999914e-01 1.030540000000000067e-01 9.679899999999999616e-02 -2.197050000000000114e-01 7.301699999999999857e-02 8.663600000000000467e-02 -2.523170000000000135e-01 1.777459999999999873e-01 1.027119999999999977e-01 -2.146520000000000095e-01 -5.678600000000000314e-02 -9.865000000000000505e-03 3.266089999999999827e-01 -4.058500000000000302e-02 -5.470499999999999668e-02 2.822069999999999856e-01 -8.452900000000000691e-02 -6.343699999999999339e-02 3.023669999999999969e-01 -1.050380000000000064e-01 -6.510100000000000608e-02 3.049720000000000208e-01 -1.124229999999999952e-01 -7.524400000000000532e-02 1.302560000000000107e-01 -1.766060000000000130e-01 -1.196480000000000044e-01 8.907400000000000040e-02 -9.853000000000000647e-02 -8.047799999999999399e-02 1.179260000000000030e-01 -1.450259999999999883e-01 -7.353700000000000514e-02 1.415460000000000051e-01 -1.536200000000000065e-02 -9.672999999999999307e-03 1.617400000000000088e-02 1.358499999999999985e-02 -1.713599999999999846e-02 9.879999999999999893e-03 7.236000000000000244e-03 -2.494199999999999889e-02 4.211299999999999766e-02 -3.621699999999999919e-02 -1.294799999999999944e-02 1.947099999999999873e-02 9.048599999999999699e-02 5.383099999999999691e-02 -2.247300000000000131e-01 1.020889999999999992e-01 6.718100000000000460e-02 -2.308779999999999999e-01 1.231600000000000056e-01 3.973000000000000143e-02 -2.288479999999999959e-01 8.653500000000000081e-02 8.129200000000000315e-02 -1.779340000000000088e-01
1.159329999999999944e-01 1.328310000000000046e-01 -2.461280000000000134e-01 1.570900000000000074e-01 1.667109999999999981e-01 -2.254210000000000103e-01 6.900799999999999990e-02 5.618700000000000083e-02 -3.155020000000000047e-01 1.437920000000000031e-01 1.188769999999999966e-01 -2.773370000000000002e-01 -8.477600000000000413e-02 5.227699999999999708e-02 3.190450000000000230e-01 6.029999999999999770e-03 -4.472099999999999687e-02 2.918100000000000138e-01 4.806999999999999641e-03 1.394999999999999973e-03 2.808160000000000101e-01 -3.178999999999999881e-02 -2.613599999999999951e-02 3.038080000000000225e-01 -9.141599999999999726e-02 -9.167599999999999361e-02 1.843710000000000071e-01 -1.607000000000000095e-01 -1.650770000000000015e-01 1.597619999999999874e-01 -1.283310000000000006e-01 -1.002159999999999995e-01 1.597119999999999929e-01 -1.782430000000000125e-01 -9.030000000000000526e-02 1.106660000000000005e-01 8.958999999999999950e-03 -3.971600000000000130e-02 -3.301799999999999874e-02 -1.637299999999999867e-02 -2.097600000000000159e-02 -3.197599999999999748e-02 -4.726799999999999752e-02 -4.606600000000000278e-02 4.134899999999999687e-02 -3.293299999999999700e-02 -2.970499999999999877e-02 3.205399999999999916e-02 4.372299999999999798e-02 7.375600000000000211e-02 -1.531830000000000136e-01 1.004319999999999935e-01 1.098799999999999950e-02 -1.731340000000000101e-01 1.383300000000000085e-01 6.043999999999999893e-03 -2.713969999999999994e-01 -1.418499999999999969e-02 3.333099999999999952e-02 -1.553499999999999881e-01
1.330999999999999961e-01 1.825569999999999971e-01 -2.558840000000000003e-01 2.128440000000000054e-01 2.350820000000000132e-01 -2.272109999999999963e-01 6.473800000000000388e-02 2.606199999999999836e-02 -3.763699999999999823e-01 1.089709999999999984e-01 1.335169999999999968e-01 -3.382660000000000111e-01 -1.112220000000000014e-01 1.154950000000000004e-01 3.084009999999999807e-01 5.486699999999999910e-02 -3.403599999999999681e-02 3.018279999999999852e-01 9.634600000000000108e-02 6.763900000000000468e-02 2.547769999999999757e-01 3.915899999999999936e-02 1.134699999999999945e-02 2.981730000000000214e-01 -7.030500000000000638e-02 -1.063049999999999967e-01 2.359999999999999876e-01 -1.448720000000000008e-01 -2.064020000000000021e-01 2.282510000000000094e-01 -1.573990000000000111e-01 -1.190279999999999949e-01 2.000049999999999883e-01 -2.125120000000000064e-01 -1.075740000000000030e-01 7.785499999999999365e-02 3.397399999999999726e-02 -6.955500000000000571e-02 -8.329100000000000392e-02 -4.813400000000000317e-02 -2.572899999999999840e-02 -7.650400000000000256e-02 -1.043260000000000021e-01 -6.830300000000000260e-02 3.729899999999999882e-02 -2.988400000000000084e-02 -4.594899999999999679e-02 4.395899999999999808e-02 -5.255000000000000122e-03 9.475300000000000389e-02 -7.946799999999999697e-02 9.869799999999999407e-02 -4.822099999999999997e-02 -1.114399999999999974e-01 1.534609999999999863e-01 -2.619000000000000147e-02 -3.108899999999999997e-01 -1.120180000000000065e-01 -1.409499999999999989e-02 -1.265199999999999936e-01
1.493440000000000045e-01 2.283850000000000047e-01 -2.621359999999999801e-01 2.692769999999999886e-01 3.017029999999999990e-01 -2.254150000000000043e-01 6.034799999999999887e-02 -2.890999999999999907e-03 -4.341840000000000144e-01 7.384599999999999498e-02 1.465909999999999991e-01 -3.959340000000000082e-01 -1.354579999999999951e-01 1.802970000000000128e-01 2.945539999999999825e-01 1.057700000000000029e-01 -2.142900000000000013e-02 3.124910000000000188e-01 1.896579999999999933e-01 1.355419999999999958e-01 2.246499999999999886e-01 1.074729999999999991e-01 4.695099999999999968e-02 2.884399999999999742e-01 -4.916500000000000037e-02 -1.192710000000000020e-01 2.848680000000000101e-01 -1.292310000000000125e-01 -2.437469999999999914e-01 2.940690000000000248e-01 -1.855920000000000070e-01 -1.368699999999999917e-01 2.385259999999999880e-01 -2.475980000000000125e-01 -1.252639999999999865e-01 4.312599999999999767e-02 5.959400000000000114e-02 -9.903099999999999403e-02 -1.344629999999999992e-01 -8.165000000000000036e-02 -3.144500000000000073e-02 -1.236339999999999939e-01 -1.638930000000000109e-01 -9.162099999999999411e-02 2.958900000000000072e-02 -2.707899999999999890e-02 -6.162000000000000116e-02 5.491800000000000154e-02 -5.623000000000000220e-02 1.167050000000000032e-01 -3.539000000000000045e-03 9.683799999999999353e-02 -1.103819999999999940e-01 -4.561699999999999783e-02 1.685230000000000061e-01 -5.695000000000000062e-02 -3.469800000000000106e-01 -2.065839999999999899e-01 -6.104199999999999904e-02 -9.149300000000000488e-02
1.651960000000000095e-01 2.719340000000000090e-01 -2.656600000000000072e-01 3.278099999999999903e-01 3.676920000000000188e-01 -2.204309999999999881e-01 5.603299999999999947e-02 -3.182800000000000212e-02 -4.901329999999999854e-01 3.871000000000000135e-02 1.588029999999999997e-01 -4.511789999999999967e-01 -1.587119999999999920e-01 2.475279999999999980e-01 2.775310000000000277e-01 1.598199999999999898e-01 -7.484000000000000201e-03 3.241600000000000037e-01 2.854550000000000143e-01 2.059630000000000072e-01 1.904349999999999932e-01 1.746099999999999874e-01 8.175799999999999734e-02 2.745380000000000043e-01 -2.826299999999999993e-02 -1.307840000000000114e-01 3.308860000000000134e-01 -1.140879999999999950e-01 -2.777919999999999834e-01 3.571219999999999950e-01 -2.127580000000000027e-01 -1.537749999999999950e-01 2.752089999999999814e-01 -2.832660000000000178e-01 -1.431510000000000005e-01 6.917000000000000405e-03 8.592199999999999838e-02 -1.280419999999999892e-01 -1.860340000000000049e-01 -1.168460000000000054e-01 -3.804099999999999843e-02 -1.728139999999999954e-01 -2.259490000000000109e-01 -1.159830000000000028e-01 1.801399999999999876e-02 -2.448600000000000082e-02 -7.684499999999999664e-02 6.475000000000000200e-02 -1.090079999999999938e-01 1.395639999999999936e-01 7.388899999999999635e-02 9.505500000000000060e-02 -1.753450000000000009e-01 2.377699999999999952e-02 1.836409999999999987e-01 -8.605400000000000549e-02 -3.797980000000000245e-01 -2.975110000000000254e-01 -1.074650000000000050e-01 -5.088700000000000168e-02
1.801870000000000138e-01 3.124049999999999883e-01 -2.663150000000000239e-01 3.871390000000000109e-01 4.312929999999999819e-01 -2.126899999999999902e-01 5.145600000000000174e-02 -6.007500000000000340e-02 -5.429650000000000309e-01 3.475999999999999923e-03 1.699110000000000065e-01 -5.031780000000000141e-01 -1.801039999999999863e-01 3.154939999999999967e-01 2.577320000000000166e-01 2.152489999999999959e-01 6.945999999999999917e-03 3.367330000000000045e-01 3.809100000000000263e-01 2.768289999999999917e-01 1.527310000000000056e-01 2.388820000000000110e-01 1.147330000000000017e-01 2.572820000000000107e-01 -7.524000000000000306e-03 -1.409630000000000050e-01 3.740229999999999944e-01 -9.942399999999999849e-02 -3.088929999999999731e-01 4.178310000000000080e-01 -2.387789999999999913e-01 -1.696390000000000120e-01 3.099190000000000000e-01 -3.192760000000000042e-01 -1.612020000000000119e-01 -3.074100000000000096e-02 1.126800000000000024e-01 -1.566009999999999902e-01 -2.379300000000000026e-01 -1.537179999999999935e-01 -4.562800000000000189e-02 -2.239400000000000002e-01 -2.904860000000000220e-01 -1.413860000000000117e-01 2.275999999999999811e-03 -2.216500000000000067e-02 -9.148100000000000676e-02 7.320200000000000318e-02 -1.634919999999999984e-01 1.632830000000000115e-01 1.530680000000000096e-01 9.309199999999999420e-02 -2.430340000000000000e-01 9.704100000000000226e-02 1.986420000000000130e-01 -1.137689999999999951e-01 -4.093820000000000237e-01 -3.849620000000000264e-01 -1.536150000000000015e-01 -4.836000000000000021e-03
1.942039999999999877e-01 3.497990000000000266e-01 -2.641490000000000227e-01 4.468579999999999774e-01 4.917500000000000204e-01 -2.022559999999999913e-01 4.645099999999999923e-02 -8.730000000000000260e-02 -5.924080000000000457e-01 -3.162199999999999733e-02 1.797300000000000009e-01 -5.514270000000000005e-01 -1.998790000000000011e-01 3.839230000000000143e-01 2.354670000000000096e-01 2.715560000000000196e-01 2.112299999999999942e-02 3.504869999999999930e-01 4.772700000000000276e-01 3.482819999999999805e-01 1.113650000000000057e-01 3.001320000000000099e-01 1.458629999999999927e-01 2.372579999999999967e-01 1.279899999999999961e-02 -1.500029999999999974e-01 4.139050000000000229e-01 -8.535900000000000432e-02 -3.371770000000000045e-01 4.754099999999999993e-01 -2.635419999999999985e-01 -1.845340000000000036e-01 3.424610000000000154e-01 -3.552580000000000182e-01 -1.791790000000000049e-01 -6.955000000000000071e-02 1.399930000000000063e-01 -1.845539999999999958e-01 -2.897649999999999948e-01 -1.920560000000000045e-01 -5.408000000000000307e-02 -2.764139999999999930e-01 -3.572930000000000272e-01 -1.676789999999999947e-01 -1.772999999999999923e-02 -1.998300000000000076e-02 -1.057389999999999997e-01 8.005199999999999816e-02 -2.193269999999999942e-01 1.875509999999999955e-01 2.330369999999999941e-01 9.101099999999999468e-02 -3.130399999999999849e-01 1.734590000000000021e-01 2.135420000000000096e-01 -1.398890000000000133e-01 -4.355519999999999947e-01 -4.682740000000000236e-01 -1.993880000000000097e-01 4.594499999999999973e-02
2.072960000000000080e-01 3.844319999999999959e-01 -2.597470000000000057e-01 5.063739999999999908e-01 5.495379999999999709e-01 -1.897629999999999872e-01 4.105899999999999828e-02 -1.134659999999999974e-01 -6.387770000000000392e-01 -6.609199999999999797e-02 1.886230000000000129e-01 -5.960919999999999552e-01 -2.182499999999999996e-01 4.521419999999999884e-01 2.112870000000000026e-01 3.292579999999999951e-01 3.571799999999999975e-02 3.657190000000000163e-01 5.744489999999999874e-01 4.198560000000000070e-01 6.656399999999999817e-02 3.583930000000000171e-01 1.751250000000000029e-01 2.148500000000000132e-01 3.270399999999999696e-02 -1.580650000000000110e-01 4.506209999999999938e-01 -7.190100000000000657e-02 -3.628449999999999731e-01 5.300280000000000546e-01 -2.870530000000000026e-01 -1.985429999999999973e-01 3.729540000000000077e-01 -3.909099999999999797e-01 -1.969079999999999997e-01 -1.093110000000000054e-01 1.677440000000000042e-01 -2.118450000000000055e-01 -3.412459999999999938e-01 -2.317940000000000000e-01 -6.335000000000000353e-02 -3.299449999999999883e-01 -4.263449999999999740e-01 -1.948580000000000034e-01 -4.202199999999999686e-02 -1.795499999999999874e-02 -1.196220000000000061e-01 8.514399999999999746e-02 -2.763180000000000081e-01 2.123259999999999870e-01 3.135249999999999981e-01 8.884599999999999442e-02 -3.852160000000000029e-01 2.528889999999999749e-01 2.283159999999999912e-01 -1.645709999999999951e-01 -4.585130000000000039e-01 -5.474120000000000097e-01 -2.448200000000000098e-01 1.008799999999999975e-01
2.194010000000000127e-01 4.164709999999999801e-01 -2.529390000000000249e-01 5.652319999999999567e-01 6.051720000000000432e-01 -1.752920000000000034e-01 3.536999999999999866e-02 -1.387609999999999955e-01 -6.813989999999999769e-01 -1.002510000000000068e-01 1.967029999999999890e-01 -6.368909999999999849e-01 -2.353359999999999896e-01 5.202470000000000150e-01 1.850999999999999868e-01 3.887800000000000145e-01 5.156199999999999672e-02 3.825549999999999784e-01 6.722949999999999759e-01 4.918230000000000102e-01 1.905400000000000149e-02 4.139809999999999879e-01 2.028200000000000003e-01 1.899389999999999967e-01 5.215100000000000291e-02 -1.653519999999999990e-01 4.841929999999999845e-01 -5.915399999999999825e-02 -3.862559999999999882e-01 5.816930000000000156e-01 -3.093239999999999879e-01 -2.117400000000000115e-01 4.014499999999999735e-01 -4.258540000000000103e-01 -2.142070000000000085e-01 -1.497709999999999875e-01 1.959420000000000051e-01 -2.383740000000000026e-01 -3.922149999999999803e-01 -2.727490000000000192e-01 -7.346099999999999852e-02 -3.840600000000000125e-01 -4.975450000000000150e-01 -2.229029999999999900e-01 -7.065100000000000546e-02 -1.615600000000000022e-02 -1.331440000000000123e-01 8.831100000000000061e-02 -3.340969999999999773e-01 2.373850000000000127e-01 3.941430000000000211e-01 8.650700000000000056e-02 -4.592100000000000071e-01 3.348499999999999810e-01 2.429290000000000060e-01 -1.879220000000000057e-01 -4.785050000000000137e-01 -6.223910000000000275e-01 -2.899760000000000115e-01 1.593660000000000077e-01