1.042716357507413250e+01 -1.294072022581748693e-01 -1.358882119174721070e-01 -1.294072022581748693e-01 1.008583039968447714e+01 2.725472481449702222e-01 -1.358882119174721070e-01 2.725472481449702222e-01 -6.979976406087224916e+00
1.059976736596915714e+01 -1.641652931852667363e-01 -1.983959780054987410e-01 -1.641652931852667363e-01 1.029121450860586862e+01 2.307401717511935180e-01 -1.983959780054987410e-01 2.307401717511935180e-01 -6.840629627199768414e+00
1.085394668220021863e+01 -2.002520418046402073e-01 -2.620904078339600374e-01 -2.002520418046402073e-01 1.056639878728513793e+01 1.877768588923778847e-01 -2.620904078339600374e-01 1.877768588923778847e-01 -6.603844570069949960e+00
1.114304636816048344e+01 -2.395235119154367487e-01 -3.274684802343201806e-01 -2.395235119154367487e-01 1.086359212850067557e+01 1.441847156753831571e-01 -3.274684802343201806e-01 1.441847156753831571e-01 -6.307493050140362101e+00
1.145079797393835008e+01 -2.813407307343454011e-01 -3.949764619123836695e-01 -2.813407307343454011e-01 1.116518728222346724e+01 9.932476931689837585e-02 -3.949764619123836695e-01 9.932476931689837585e-02 -6.010735833205496981e+00
1.180593498993255075e+01 -3.253081436812211291e-01 -4.631132739486262251e-01 -3.253081436812211291e-01 1.150465425138884790e+01 5.228420155505066058e-02 -4.631132739486262251e-01 5.228420155505066058e-02 -5.657718584063869294e+00
1.216566652451150965e+01 -3.711214780021064863e-01 -5.331568619096698214e-01 -3.711214780021064863e-01 1.184051051720726733e+01 2.606603258903592447e-03 -5.331568619096698214e-01 2.606603258903592447e-03 -5.305634438034378064e+00
1.255189007353504493e+01 -4.184460336676479320e-01 -6.046913863651057763e-01 -4.184460336676479320e-01 1.219360890574995082e+01 -4.935304069192560789e-02 -6.046913863651057763e-01 -4.935304069192560789e-02 -4.894511235311976627e+00
1.295786092429043102e+01 -4.657908741834532740e-01 -6.750798167806346672e-01 -4.657908741834532740e-01 1.256082555007626667e+01 -1.046901122116843802e-01 -6.750798167806346672e-01 -1.046901122116843802e-01 -4.457575560628837863e+00
1.339458360804580117e+01 -5.122228964373857218e-01 -7.435716136964944933e-01 -5.122228964373857218e-01 1.295283028142499759e+01 -1.628873476186447344e-01 -7.435716136964944933e-01 -1.628873476186447344e-01 -3.991206568212864791e+00
1.094898688878038762e+01 -1.985971591524993141e-01 1.684786552716941443e+00 -1.985971591524993141e-01 7.362299829260595452e+00 8.454861251313524617e-01 1.684786552716941443e+00 8.454861251313524617e-01 -1.922301219392704985e-01
1.100840585315321007e+01 -2.549232747524396436e-01 1.595819296973233437e+00 -2.549232747524396436e-01 7.330474717620422354e+00 8.866804529239040722e-01 1.595819296973233437e+00 8.866804529239040722e-01 -5.141987015240483821e-02
1.109763504397214717e+01 -3.090229422129439629e-01 1.515092921673229398e+00 -3.090229422129439629e-01 7.342694996322394196e+00 9.225957815080192415e-01 1.515092921673229398e+00 9.225957815080192415e-01 1.170144576450200119e-01
1.122354521974893871e+01 -3.625382929671709387e-01 1.443332785486791447e+00 -3.625382929671709387e-01 7.406798568771405300e+00 9.530608456422026142e-01 1.443332785486791447e+00 9.530608456422026142e-01 3.161858590778263700e-01
1.137300940344429101e+01 -4.148245637530214580e-01 1.381203800527958991e+00 -4.148245637530214580e-01 7.510051360540997756e+00 9.784987712172069640e-01 1.381203800527958991e+00 9.784987712172069640e-01 5.379844212399236270e-01
1.154504030131311332e+01 -4.650153539370497913e-01 1.328222394350157876e+00 -4.650153539370497913e-01 7.650367965455317609e+00 9.984763579163093983e-01 1.328222394350157876e+00 9.984763579163093983e-01 7.787027553742421615e-01
1.175840656893807079e+01 -5.146117529888305508e-01 1.286161665924160369e+00 -5.146117529888305508e-01 7.845338331258509434e+00 1.015260351582827125e+00 1.286161665924160369e+00 1.015260351582827125e+00 1.053402128306378138e+00
1.199375523403022115e+01 -5.636137609083636812e-01 1.254175363468462034e+00 -5.636137609083636812e-01 8.076818416778065668e+00 1.028155616824809382e+00 1.254175363468462034e+00 1.028155616824809382e+00 1.346477254208339192e+00
1.225125756183105530e+01 -6.123236104747581399e-01 1.232102296167537636e+00 -6.123236104747581399e-01 8.344284351863526794e+00 1.037534907403157680e+00 1.232102296167537636e+00 1.037534907403157680e+00 1.656789722945481325e+00
1.253188069723372600e+01 -6.616580744513111956e-01 1.219630156816307709e+00 -6.616580744513111956e-01 8.646053707377854280e+00 1.043448595447723060e+00 1.219630156816307709e+00 1.043448595447723060e+00 1.983966780756903470e+00
4.620829931509546462e+00 -3.081794003435463836e+00 -1.735466595965098779e+00 -3.081794003435463836e+00 6.668401662167060984e+00 -1.625190270947764803e+00 -1.735466595965098779e+00 -1.625190270947764803e+00 -4.170162208851295738e+00
4.403012339978805478e+00 -3.093875558856943542e+00 -1.803555157668109032e+00 -3.093875558856943542e+00 6.693891173562675156e+00 -1.830741227910144486e+00 -1.803555157668109032e+00 -1.830741227910144486e+00 -4.156661713303718919e+00
4.225336358971856221e+00 -3.104569020676806179e+00 -1.865710904496060918e+00 -3.104569020676806179e+00 6.759378345034507518e+00 -2.032271854515248943e+00 -1.865710904496060918e+00 -2.032271854515248943e+00 -4.088285250705558482e+00
4.091411031852903335e+00 -3.112743349664104819e+00 -1.921625371204150445e+00 -3.112743349664104819e+00 6.868287140799878898e+00 -2.228003334518042777e+00 -1.921625371204150445e+00 -2.228003334518042777e+00 -3.969310205784759571e+00
4.004917377209936902e+00 -3.118306006245398887e+00 -1.971164889519629870e+00 -3.118306006245398887e+00 7.024586480341929118e+00 -2.416938296960328802e+00 -1.971164889519629870e+00 -2.416938296960328802e+00 -3.810697376906680756e+00
3.918310618643875642e+00 -3.124763212036623994e+00 -2.017136493170212486e+00 -3.124763212036623994e+00 7.181554161247721169e+00 -2.599786211905153355e+00 -2.017136493170212486e+00 -2.599786211905153355e+00 -3.626481932709892497e+00
3.892378973730708402e+00 -3.127817017960180745e+00 -2.055540416148277316e+00 -3.127817017960180745e+00 7.395392551120495206e+00 -2.774696287883696044e+00 -2.055540416148277316e+00 -2.774696287883696044e+00 -3.405332916535270815e+00
3.898836179521933509e+00 -3.128906928491820505e+00 -2.089029459559135216e+00 -3.128906928491820505e+00 7.638586550123756425e+00 -2.942018118840066254e+00 -2.089029459559135216e+00 -2.942018118840066254e+00 -3.162128635357182027e+00
3.944057184410160399e+00 -3.127498270540550074e+00 -2.117500801654519815e+00 -3.127498270540550074e+00 7.915588339957507102e+00 -3.100641229892972195e+00 -2.117500801654519815e+00 -3.100641229892972195e+00 -2.896694292203571663e+00
4.016793289134880318e+00 -3.123642454980503746e+00 -2.140882467210642570e+00 -3.123642454980503746e+00 8.210810143584330589e+00 -3.249599096608693394e+00 -2.140882467210642570e+00 -3.249599096608693394e+00 -2.629018434937720361e+00
7.965718914740894441e+00 1.514274988351634210e+00 -9.219941059347902534e-02 1.514274988351634210e+00 3.522774024896476064e+00 2.052099644282023849e+00 -9.219941059347902534e-02 2.052099644282023849e+00 -1.537341082514542023e+01
7.921028553770194769e+00 1.541518819189575451e+00 -4.522475919098255248e-02 1.541518819189575451e+00 3.269144438191718294e+00 2.207379001661812890e+00 -4.522475919098255248e-02 2.207379001661812890e+00 -1.541377360837147847e+01
7.879628409292999791e+00 1.565084732864394645e+00 -7.114831207293131725e-03 1.565084732864394645e+00 3.022430593161207657e+00 2.357806861473153770e+00 -7.114831207293131725e-03 2.357806861473153770e+00 -1.538920176863494937e+01
7.945065995286440419e+00 1.580404148512498663e+00 2.105109852054772024e-02 1.580404148512498663e+00 2.883026006442757083e+00 2.499852004103589209e+00 2.105109852054772024e-02 2.499852004103589209e+00 -1.525401997569637835e+01
8.013741405791003913e+00 1.592883918715571001e+00 4.062474313796092529e-02 1.592883918715571001e+00 2.749929414402938033e+00 2.638156359192045830e+00 4.062474313796092529e-02 2.638156359192045830e+00 -1.505288715533704114e+01
8.115539027556620155e+00 1.601905818081519994e+00 5.240246077713247436e-02 1.601905818081519994e+00 2.652794679069200967e+00 2.771703522280339005e+00 5.240246077713247436e-02 2.771703522280339005e+00 -1.477715863046412004e+01
8.244905310450937108e+00 1.607899460865866992e+00 5.676147371120308233e-02 1.607899460865866992e+00 2.587178960335666744e+00 2.900021965527042056e+00 5.676147371120308233e-02 2.900021965527042056e+00 -1.443277565187959155e+01
8.408693125769342913e+00 1.611797424354987962e+00 5.443526969350194478e-02 1.611797424354987962e+00 2.558866333057160158e+00 3.023174559311012644e+00 5.443526969350194478e-02 3.023174559311012644e+00 -1.401969630599754346e+01
8.612560807608954150e+00 1.614343674698687892e+00 4.601063892669239597e-02 1.614343674698687892e+00 2.572383464511369677e+00 3.141161303632250767e+00 4.601063892669239597e-02 3.141161303632250767e+00 -1.353635931174303764e+01
8.832921485501994852e+00 1.617099492971910246e+00 3.247255067953080249e-02 1.617099492971910246e+00 2.601932542574060037e+00 3.255030038138369441e+00 3.247255067953080249e-02 3.255030038138369441e+00 -1.300425586028861424e+01
1.808999605664449062e+00 -2.943816178954804297e+00 -2.518541777994143693e+00 -2.943816178954804297e+00 8.264894867629195119e+00 -7.984433551718014277e-01 -2.518541777994143693e+00 -7.984433551718014277e-01 -1.365179482602520622e+01
1.843593260087203367e+00 -2.980968442555840259e+00 -2.587959781109824942e+00 -2.980968442555840259e+00 8.211027755543808482e+00 -6.739418520007313118e-01 -2.587959781109824942e+00 -6.739418520007313118e-01 -1.376020016080011743e+01
1.901906479925013382e+00 -3.016411471336958972e+00 -2.659233824490080167e+00 -3.016411471336958972e+00 8.201443457228441147e+00 -5.647186011770247704e-01 -2.659233824490080167e+00 -5.647186011770247704e-01 -1.380452491898289402e+01
1.983719057010896680e+00 -3.049967001543934852e+00 -2.732164672174304254e+00 -3.049967001543934852e+00 8.233447044163344941e+00 -4.697040201753345801e-01 -2.732164672174304254e+00 -4.697040201753345801e-01 -1.378634201605198939e+01
2.089272171718215443e+00 -3.081163158533232416e+00 -2.806395796654048258e+00 -3.081163158533232416e+00 8.304207268487305171e+00 -3.875768599937611247e-01 -2.806395796654048258e+00 -3.875768599937611247e-01 -1.370548367435636727e+01
2.212064440069367421e+00 -3.109549039867696152e+00 -2.881434351079398493e+00 -3.109549039867696152e+00 8.403972054233920019e+00 -3.168480939793697493e-01 -2.881434351079398493e+00 -3.168480939793697493e-01 -1.357081065109130691e+01
2.354224541011858740e+00 -3.134673743110169220e+00 -2.956368044472851064e+00 -3.134673743110169220e+00 8.532437304410690260e+00 -2.553785570814658401e-01 -2.956368044472851064e+00 -2.553785570814658401e-01 -1.338470329168086614e+01
2.526374897076834714e+00 -3.157019629007377759e+00 -3.030525766230268037e+00 -3.157019629007377759e+00 8.698295998561857090e+00 -2.023608193544439438e-01 -3.030525766230268037e+00 -2.023608193544439438e-01 -1.313938090755830324e+01
2.721636624571865504e+00 -3.176104336812594742e+00 -3.102460434111472320e+00 -3.176104336812594742e+00 8.893526267747317249e+00 -1.552782160327808858e-01 -3.102460434111472320e+00 -1.552782160327808858e-01 -1.284214182654363512e+01
2.938615071772722853e+00 -3.190596131420732284e+00 -3.170703993669909515e+00 -3.190596131420732284e+00 9.110641034289642448e+00 -1.125997760507834455e-01 -3.170703993669909515e+00 -1.125997760507834455e-01 -1.249675055968195636e+01
