8.117608828999999915e+00 0.000000000000000000e+00 0.000000000000000000e+00 -4.019100769999999656e+00 7.464448186000000263e+00 0.000000000000000000e+00 7.036547330000000322e-01 2.474819520000000050e-01 1.090571922300000018e+01
8.518433247999999125e+00 0.000000000000000000e+00 0.000000000000000000e+00 -4.217552526999999607e+00 7.833021392000000027e+00 0.000000000000000000e+00 7.383992010000000050e-01 2.597019059999999824e-01 1.144421259800000001e+01
8.407304711000000097e+00 0.000000000000000000e+00 0.000000000000000000e+00 -4.125037612999999936e+00 7.504039257999999712e+00 0.000000000000000000e+00 4.709544600000000192e-01 -5.565269999999999939e-02 1.100035970100000071e+01
8.166827397000000488e+00 0.000000000000000000e+00 0.000000000000000000e+00 -4.043469323000000060e+00 7.509706519999999941e+00 0.000000000000000000e+00 7.079211229999999855e-01 2.489824810000000055e-01 1.097184262100000041e+01
8.124915508999999147e+00 0.000000000000000000e+00 0.000000000000000000e+00 -4.022718373000000014e+00 7.471166955000000165e+00 0.000000000000000000e+00 7.042880950000000029e-01 2.477047109999999941e-01 1.091553548799999973e+01
8.451261522999999443e+00 0.000000000000000000e+00 0.000000000000000000e+00 -4.146604989000000074e+00 7.543273430000000168e+00 0.000000000000000000e+00 4.734168020000000254e-01 -5.594367499999999827e-02 1.105787405899999953e+01
8.103561718999999997e+00 0.000000000000000000e+00 0.000000000000000000e+00 -4.012145920000000032e+00 7.451531336999999588e+00 0.000000000000000000e+00 7.024370949999999558e-01 2.470536969999999888e-01 1.088684742899999947e+01
8.527390717999999481e+00 0.000000000000000000e+00 0.000000000000000000e+00 -4.183957720000000435e+00 7.611223444000000171e+00 0.000000000000000000e+00 4.776813529999999752e-01 -5.644761799999999802e-02 1.115748369199999956e+01
8.419400933000000364e+00 0.000000000000000000e+00 0.000000000000000000e+00 -4.130972615000000125e+00 7.514835884000000021e+00 0.000000000000000000e+00 4.716320580000000207e-01 -5.573277199999999987e-02 1.101618674600000070e+01
8.496176209999999784e+00 0.000000000000000000e+00 0.000000000000000000e+00 -4.206532868000000036e+00 7.812555202999999615e+00 0.000000000000000000e+00 7.364699049999999803e-01 2.590233550000000107e-01 1.141431105700000082e+01
8.611803503000000859e+00 0.000000000000000000e+00 0.000000000000000000e+00 -4.263780975000000417e+00 7.918878871000000430e+00 0.000000000000000000e+00 7.464927700000000277e-01 2.625484900000000232e-01 1.156965222000000004e+01
8.530683657999999170e+00 0.000000000000000000e+00 0.000000000000000000e+00 -4.223617813999999804e+00 7.844286107000000285e+00 0.000000000000000000e+00 7.394610980000000389e-01 2.600753849999999923e-01 1.146067058899999935e+01
8.516636208999999624e+00 0.000000000000000000e+00 0.000000000000000000e+00 -4.216662795999999602e+00 7.831368946000000442e+00 0.000000000000000000e+00 7.382434289999999510e-01 2.596471200000000090e-01 1.144179833899999998e+01
8.389273822999999908e+00 0.000000000000000000e+00 0.000000000000000000e+00 -4.116190771000000304e+00 7.487945575000000353e+00 0.000000000000000000e+00 4.699444190000000021e-01 -5.553334399999999837e-02 1.097676756699999956e+01
8.443041855000000595e+00 0.000000000000000000e+00 0.000000000000000000e+00 -4.180225573000000416e+00 7.763696155999999959e+00 0.000000000000000000e+00 7.318640859999999693e-01 2.574034450000000085e-01 1.134292693799999974e+01
8.156294458999999719e+00 0.000000000000000000e+00 0.000000000000000000e+00 -4.038254371999999925e+00 7.500021086000000281e+00 0.000000000000000000e+00 7.070081009999999999e-01 2.486613619999999969e-01 1.095769199399999927e+01
8.702609382000000338e+00 0.000000000000000000e+00 0.000000000000000000e+00 -4.308739778999999714e+00 8.002378308999999135e+00 0.000000000000000000e+00 7.543640510000000354e-01 2.653168929999999981e-01 1.169164669399999923e+01
8.217393641999999332e+00 0.000000000000000000e+00 0.000000000000000000e+00 -4.162525567000000315e+00 7.342418355000000396e+00 0.000000000000000000e+00 6.526564120000000191e-01 -4.244008300000000344e-02 1.087017764299999989e+01
8.361603650999999360e+00 0.000000000000000000e+00 0.000000000000000000e+00 -4.102614423000000343e+00 7.463248237000000174e+00 0.000000000000000000e+00 4.683944110000000105e-01 -5.535017899999999935e-02 1.094056311800000003e+01
8.439455801999999451e+00 0.000000000000000000e+00 0.000000000000000000e+00 -4.140812520999999968e+00 7.532736093999999660e+00 0.000000000000000000e+00 4.727554769999999795e-01 -5.586552699999999816e-02 1.104242711400000054e+01
8.404711078000000057e+00 0.000000000000000000e+00 0.000000000000000000e+00 -4.161247662000000069e+00 7.728449557000000247e+00 0.000000000000000000e+00 7.285414780000000201e-01 2.562348520000000129e-01 1.129143089999999994e+01
8.385784450999999251e+00 0.000000000000000000e+00 0.000000000000000000e+00 -4.114478713999999648e+00 7.484831094999999657e+00 0.000000000000000000e+00 4.697489539999999963e-01 -5.551024599999999920e-02 1.097220197300000066e+01
8.376474227999999300e+00 0.000000000000000000e+00 0.000000000000000000e+00 -4.109910659999999716e+00 7.476521145000000423e+00 0.000000000000000000e+00 4.692274200000000062e-01 -5.544861599999999918e-02 1.096002020799999954e+01
8.694279858999999888e+00 0.000000000000000000e+00 0.000000000000000000e+00 -4.304615756999999654e+00 7.994718996999999661e+00 0.000000000000000000e+00 7.536420270000000476e-01 2.650629500000000194e-01 1.168045627499999917e+01
8.387799163000000391e+00 0.000000000000000000e+00 0.000000000000000000e+00 -4.115467231000000226e+00 7.486629350000000294e+00 0.000000000000000000e+00 4.698618119999999898e-01 -5.552358200000000188e-02 1.097483807899999952e+01
8.565641380000000638e+00 0.000000000000000000e+00 0.000000000000000000e+00 -4.240925694999999607e+00 7.876431054000000209e+00 0.000000000000000000e+00 7.424913210000000374e-01 2.611411430000000200e-01 1.150763504700000084e+01
8.054832729999999330e+00 0.000000000000000000e+00 0.000000000000000000e+00 -4.080180241999999957e+00 7.197166675000000069e+00 0.000000000000000000e+00 6.397452110000000358e-01 -4.160051099999999974e-02 1.065513792600000009e+01
8.149510734999999784e+00 0.000000000000000000e+00 0.000000000000000000e+00 -4.050272317000000122e+00 7.344890678999999700e+00 0.000000000000000000e+00 6.241198589999999990e-01 -3.614088859999999848e-01 1.089945299500000075e+01
