-6.459629096000000459e+01
-6.682255388000000096e+01
-6.668610361000000353e+01
-6.740130157000000111e+01
-6.309290587000000272e+01
-6.540604641999999558e+01
-6.676707505999999626e+01
-6.469939700000000471e+01
-6.570218610000000581e+01
-6.481165117000000464e+01
-6.532982427000000314e+01
-6.403926665999999557e+01
-6.717734611000000200e+01
-6.513247294999999326e+01
-6.625468660999999315e+01
-6.797288509999999917e+01
-6.667268242000000100e+01
-6.578904371000000140e+01
-6.466511635000000524e+01
-6.592322380000000237e+01
-6.671721718999999950e+01
-6.436470801999999480e+01
-6.681050467999999398e+01
-6.828974850000000174e+01
-6.464207731000000479e+01
-6.747407033999999726e+01
-6.568068995000000143e+01
-6.561137759000000358e+01
-6.695139623999999401e+01
-6.435527269000000672e+01
-6.596726234999999861e+01
-6.497646580999999344e+01
-6.578280603000000326e+01
-6.428100799000000620e+01
-6.521589027000000272e+01
-6.783265430999999523e+01
-6.542646709999999644e+01
-6.566476923999999826e+01
-6.640237564999999620e+01
-6.793496690999999998e+01
-6.493987597999999650e+01
-6.690833039999999698e+01
-6.673909616999999628e+01
-6.319074924000000237e+01
-6.484425434000000621e+01
-6.763972728999999617e+01
-6.680129823999999417e+01
-6.696103392000000554e+01
-6.695695114999999475e+01
-6.528406807999999728e+01
-6.767258424000000616e+01
-6.820968784000000085e+01
-6.610357204000000308e+01
-6.753826008999999431e+01
-6.465033162999999661e+01
-6.642840318999999738e+01
-6.634514319000000171e+01
-6.610164455999999689e+01
-6.496933726000000320e+01
-6.366975604000000288e+01
-6.526289585000000670e+01
-6.708659661000000085e+01
-6.420111706000000140e+01
-6.821194235999999478e+01
-6.660809817000000521e+01
-6.532263349999999491e+01
-6.788117026999999837e+01
-6.664235807000000023e+01
-6.687861949999999922e+01
-6.388423421000000246e+01
-6.721401944000000128e+01
-6.741272542000000101e+01
-6.512052939000000151e+01
-6.590154275000000439e+01
-6.793583316999999511e+01
-6.517909548000000086e+01
-6.761735446999999510e+01
-6.515744008000000065e+01
-6.732478609999999719e+01
-6.625454512999999679e+01
-6.439026006000000280e+01
-6.481114263999999991e+01
-6.481882319999999709e+01
-6.692201679000000070e+01
-6.591224468000000059e+01
-6.544851162000000500e+01
-6.558429753000000062e+01
-6.746694451999999842e+01
-6.679401171000000659e+01
-6.615718533000000434e+01
-6.514220226999999852e+01
-6.460202198999999723e+01
-6.458421004999999582e+01
-6.368846340000000339e+01
-6.801394415000000038e+01
-6.551555432000000678e+01
-6.685795975999999996e+01
-6.622863026999999647e+01
-6.618549987999999473e+01
-6.509352083999999650e+01
