8.066604931000000533e+00 0.000000000000000000e+00 0.000000000000000000e+00 -3.988286321999999995e+00 6.907915033000000093e+00 0.000000000000000000e+00 0.000000000000000000e+00 0.000000000000000000e+00 2.000000000000000000e+01
8.081366222999999849e+00 0.000000000000000000e+00 0.000000000000000000e+00 -4.081426725000000033e+00 7.069238956000000407e+00 0.000000000000000000e+00 0.000000000000000000e+00 0.000000000000000000e+00 2.000000000000000000e+01
8.171056158000000735e+00 0.000000000000000000e+00 0.000000000000000000e+00 -3.990709809000000163e+00 6.912112635999999810e+00 0.000000000000000000e+00 0.000000000000000000e+00 0.000000000000000000e+00 2.000000000000000000e+01
