2.167879999999999807e+00 9.412399999999999656e-01 1.134140000000000015e+01 2.907600000000000184e-01 3.847579999999999778e+00 1.076699999999999946e+01 6.217710000000000292e+00 3.869799999999999907e-01 1.097700000000000031e+01 4.164990000000000414e+00 4.138539999999999885e+00 1.121889999999999965e+01 -1.896899999999999975e-01 5.059799999999999853e-01 1.697230000000000061e+01 -2.423119999999999941e+00 4.298099999999999810e+00 1.713370000000000104e+01 3.466639999999999944e+00 5.187699999999999534e-01 1.691379999999999839e+01 2.258210000000000051e+00 3.372469999999999857e+00 1.427260000000000062e+01 -3.458349999999999813e+00 6.384610000000000340e+00 9.824099999999999611e+00 6.193810000000000038e+00 2.866439999999999877e+00 9.646169999999999689e+00 1.938300000000000023e-01 6.422030000000000349e+00 9.811519999999999797e+00 2.418330000000000091e+00 2.893619999999999859e+00 9.612030000000000740e+00 2.389000000000000012e-01 2.410219999999999807e+00 1.294829999999999970e+01 -2.301460000000000061e+00 6.200199999999999712e+00 1.523939999999999984e+01 4.360699999999999577e+00 2.112820000000000142e+00 1.308590000000000053e+01 2.817130000000000134e+00 5.746649999999999814e+00 1.310249999999999915e+01 -9.579999999999999627e-02 3.027099999999999902e+00 1.707710000000000150e+01 -2.392180000000000195e+00 6.411760000000000126e+00 1.873239999999999839e+01 3.221909999999999830e+00 3.059590000000000032e+00 1.678800000000000026e+01 1.672060000000000102e+00 5.988559999999999661e+00 1.691750000000000043e+01
1.889829999999999899e+00 1.415429999999999966e+00 1.161420000000000030e+01 -2.208900000000000030e-01 4.898240000000000371e+00 1.181320000000000014e+01 5.866729999999999556e+00 1.395999999999999908e+00 1.145049999999999990e+01 3.750239999999999796e+00 4.659010000000000318e+00 1.148920000000000030e+01 3.942599999999999993e-01 2.357700000000000073e-01 1.581670000000000087e+01 6.091319999999999624e+00 3.418689999999999785e+00 1.553430000000000000e+01 1.310399999999999898e-01 6.554649999999999643e+00 1.568210000000000015e+01 2.229680000000000106e+00 3.559569999999999901e+00 1.563289999999999935e+01 7.935889999999999667e+00 2.188999999999999974e-02 1.028999999999999915e+01 -2.111689999999999845e+00 3.742690000000000072e+00 1.023499999999999943e+01 3.784569999999999990e+00 1.365200000000000025e-01 1.042619999999999969e+01 1.646670000000000078e+00 3.651710000000000012e+00 1.030790000000000006e+01 -6.006000000000000227e-02 1.821229999999999905e+00 1.350420000000000087e+01 -1.858810000000000073e+00 5.904110000000000191e+00 1.395880000000000010e+01 4.254220000000000113e+00 2.721560000000000201e+00 1.326389999999999958e+01 1.852600000000000025e+00 5.480400000000000382e+00 1.360619999999999941e+01 7.198000000000000231e-02 2.683809999999999807e+00 1.706019999999999825e+01 -2.055070000000000174e+00 5.664229999999999876e+00 1.712699999999999889e+01 4.054770000000000429e+00 1.959649999999999892e+00 1.680730000000000146e+01 2.376500000000000057e+00 5.944469999999999921e+00 1.701869999999999905e+01
2.589129999999999932e+00 8.988199999999999523e-01 1.080649999999999977e+01 8.880000000000000393e-02 4.017769999999999619e+00 1.079950000000000010e+01 6.216020000000000323e+00 7.268499999999999961e-01 1.129620000000000068e+01 4.188460000000000072e+00 4.136529999999999596e+00 1.123019999999999996e+01 -3.166999999999999676e-02 2.754900000000000126e-01 1.715350000000000108e+01 -2.134049999999999780e+00 4.116920000000000357e+00 1.687640000000000029e+01 3.632740000000000080e+00 1.203999999999999931e-01 1.695029999999999859e+01 2.058230000000000004e+00 3.528519999999999879e+00 1.439750000000000085e+01 -3.700919999999999987e+00 6.554149999999999920e+00 9.967779999999999418e+00 6.042779999999999596e+00 2.897470000000000212e+00 9.772449999999999193e+00 4.351400000000000268e-01 6.447409999999999641e+00 9.600509999999999877e+00 2.340599999999999792e+00 3.184680000000000177e+00 9.582520000000000593e+00 -2.889900000000000246e-01 3.452910000000000146e+00 1.327040000000000042e+01 -2.154780000000000140e+00 6.111399999999999721e+00 1.527549999999999919e+01 3.887070000000000025e+00 1.968310000000000004e+00 1.294030000000000058e+01 2.908949999999999925e+00 5.772529999999999717e+00 1.319159999999999933e+01 1.393099999999999894e-01 2.845060000000000144e+00 1.708060000000000045e+01 -2.253960000000000186e+00 6.134439999999999671e+00 1.874840000000000018e+01 3.710090000000000110e+00 2.655110000000000081e+00 1.647599999999999909e+01 1.887199999999999989e+00 5.822499999999999787e+00 1.700489999999999924e+01
