-7.031708575999999766e+01
-7.006153460999999538e+01
-7.037002463999999691e+01
