5.934430000000000538e-01 -2.355099999999999902e-02 1.955729999999999968e-01 -3.447620000000000129e-01 7.450649999999999773e-01 -6.372029999999999639e-01 7.343220000000000303e-01 6.463269999999999849e-01 -1.619240000000000124e-01 1.585419999999999885e-01 -2.603509999999999991e-01 8.888999999999999679e-02 -4.104700000000000015e-01 -5.811720000000000219e-01 -2.006330000000000058e-01 4.341900000000000204e-01 -2.670930000000000248e-01 -4.334350000000000147e-01 1.845779999999999921e-01 -1.210995999999999961e+00 -1.205699999999999966e-01 3.790789999999999993e-01 2.840520000000000267e-01 1.206910000000000066e-01 -3.539579999999999949e-01 2.138279999999999903e-01 3.558799999999999741e-01 3.252499999999999836e-02 -3.372049999999999770e-01 6.169750000000000512e-01 -8.702750000000000208e-01 -8.759500000000000064e-01 1.846559999999999868e-01 7.347499999999999865e-02 3.889929999999999777e-01 -4.346019999999999883e-01 -5.756499999999999811e-02 -3.786530000000000173e-01 2.531740000000000101e-01 -6.366499999999999937e-02 4.147980000000000000e-01 -5.087880000000000180e-01 -6.522700000000000164e-01 -1.438159999999999994e-01 -3.996160000000000267e-01 4.258709999999999996e-01 -3.368169999999999775e-01 -1.904899999999999996e-02 -3.590119999999999978e-01 5.318840000000000234e-01 5.801300000000000207e-02 9.055900000000000061e-02 6.970099999999999907e-02 6.700030000000000152e-01 2.707400000000000084e-02 6.685010000000000119e-01 2.675620000000000220e-01 -2.168199999999999988e-02 4.524549999999999961e-01 1.044039999999999968e-01
-7.569930000000000270e-01 -3.043009999999999882e-01 3.004789999999999961e-01 -1.509020000000000084e-01 1.295969999999999900e-01 2.683249999999999802e-01 6.508279999999999621e-01 -1.117300000000000064e-02 4.075000000000000150e-02 2.521510000000000140e-01 5.072729999999999739e-01 -1.708099999999999896e-01 -4.048669999999999769e-01 4.478000000000000036e-02 -8.254999999999999838e-02 -4.078309999999999991e-01 3.094890000000000141e-01 -1.962560000000000138e-01 -1.530269999999999964e-01 2.438859999999999917e-01 1.382579999999999920e-01 -6.943599999999999772e-02 3.072159999999999891e-01 -8.621600000000000097e-02 -1.183990000000000042e-01 -1.952780000000000071e-01 2.403399999999999981e-01 2.744840000000000058e-01 1.277689999999999937e-01 -2.273940000000000128e-01 3.345170000000000088e-01 -2.010979999999999990e-01 -4.180090000000000194e-01 -4.205899999999999916e-02 -3.838300000000000045e-02 -6.094460000000000433e-01 -6.215199999999999891e-02 -6.267599999999999560e-02 3.550719999999999987e-01 5.011839999999999629e-01 -4.747660000000000213e-01 -1.193546999999999914e+00 -1.903729999999999867e-01 -1.330179999999999974e-01 5.536210000000000298e-01 -3.866669999999999829e-01 -2.303790000000000004e-01 1.650199999999999931e-02 3.776399999999999757e-01 -2.476160000000000028e-01 -1.312570000000000126e-01 1.418210000000000026e-01 5.058900000000000202e-02 1.202109000000000094e+00 2.078830000000000122e-01 2.691589999999999816e-01 -2.158220000000000138e-01 2.197000000000000168e-03 -9.107300000000000118e-02 2.158499999999999863e-01
-7.361029999999999518e-01 -1.640759999999999996e-01 6.516900000000000470e-02 3.853639999999999843e-01 2.334630000000000039e-01 -3.375909999999999744e-01 3.460050000000000070e-01 -6.150179999999999536e-01 -1.528599999999999924e-02 -4.809800000000000186e-01 7.123509999999999565e-01 4.462320000000000175e-01 -4.869260000000000255e-01 -9.850599999999999634e-02 -5.696409999999999529e-01 -2.795090000000000074e-01 -7.907290000000000152e-01 2.447219999999999951e-01 9.479600000000000526e-02 1.384999999999999946e-03 8.624099999999999822e-02 -9.331100000000000505e-02 1.836329999999999907e-01 2.650259999999999838e-01 4.218410000000000215e-01 4.891710000000000225e-01 3.908019999999999827e-01 6.088519999999999488e-01 1.869190000000000018e-01 2.341299999999999978e-02 2.807899999999999979e-02 -5.085680000000000200e-01 2.326219999999999954e-01 -6.131459999999999688e-01 2.165569999999999995e-01 -4.126319999999999988e-01 -2.471659999999999968e-01 -4.400310000000000055e-01 6.393400000000000472e-02 -4.411689999999999778e-01 4.589570000000000038e-01 -1.222272000000000025e+00 -1.190169999999999978e-01 -4.031239999999999823e-01 -2.693119999999999958e-01 7.154369999999999896e-01 -1.204309999999999964e-01 -2.752370000000000094e-01 -7.185999999999999679e-03 2.097169999999999868e-01 -1.182500000000000044e-02 3.723960000000000048e-01 -2.809860000000000135e-01 8.601459999999999662e-01 1.227280000000000038e-01 9.476409999999999556e-01 2.641270000000000007e-01 4.090150000000000174e-01 -2.183229999999999893e-01 1.713619999999999866e-01
