-2.245058530173414280e+00 1.814832102870722830e+00 1.848610268286759339e+00 1.814832102870722830e+00 -1.397314223388273602e+00 -5.622158607395322250e-01 1.848610268286759339e+00 -5.622158607395322250e-01 3.292605971927715092e-01
-3.404426833687178799e+00 1.566762466420894340e+00 -1.032546513796886778e+00 1.566762466420894340e+00 -2.691732404940877288e+00 1.889381549063498200e+00 -1.032546513796886778e+00 1.889381549063498200e+00 5.215790460955100016e+00
-4.132472453636013121e+00 -4.993175079527241156e-01 1.757291362249251421e-01 -4.993175079527241156e-01 -5.674094637264583962e-01 -2.094536196840347309e+00 1.757291362249251421e-01 -2.094536196840347309e+00 2.165998203852417259e+00
