8.657036522000000289e+00 0.000000000000000000e+00 0.000000000000000000e+00 -4.086830509000000333e+00 7.078598583999999860e+00 0.000000000000000000e+00 0.000000000000000000e+00 0.000000000000000000e+00 2.000000000000000000e+01
8.420101547999999880e+00 0.000000000000000000e+00 0.000000000000000000e+00 -4.197278677999999985e+00 7.269900437000000437e+00 0.000000000000000000e+00 0.000000000000000000e+00 0.000000000000000000e+00 2.000000000000000000e+01
8.328062667999999391e+00 0.000000000000000000e+00 0.000000000000000000e+00 -4.227745791000000253e+00 7.322671028000000248e+00 0.000000000000000000e+00 0.000000000000000000e+00 0.000000000000000000e+00 2.000000000000000000e+01
7.938740000000000130e+00 0.000000000000000000e+00 0.000000000000000000e+00 -3.969370000000000065e+00 6.875150999999999790e+00 0.000000000000000000e+00 0.000000000000000000e+00 0.000000000000000000e+00 2.000000000000000000e+01
8.275260013000000470e+00 0.000000000000000000e+00 0.000000000000000000e+00 -4.333402003999999863e+00 7.505672971000000082e+00 0.000000000000000000e+00 0.000000000000000000e+00 0.000000000000000000e+00 2.000000000000000000e+01
8.532177440999999973e+00 0.000000000000000000e+00 0.000000000000000000e+00 -4.146744025000000278e+00 7.182371844999999588e+00 0.000000000000000000e+00 0.000000000000000000e+00 0.000000000000000000e+00 2.000000000000000000e+01
8.595382131999999231e+00 0.000000000000000000e+00 0.000000000000000000e+00 -4.043839962999999926e+00 7.004136768999999596e+00 0.000000000000000000e+00 0.000000000000000000e+00 0.000000000000000000e+00 2.000000000000000000e+01
8.392396813999999594e+00 0.000000000000000000e+00 0.000000000000000000e+00 -4.191781407999999765e+00 7.260378885999999810e+00 0.000000000000000000e+00 0.000000000000000000e+00 0.000000000000000000e+00 2.000000000000000000e+01
8.530389064999999604e+00 0.000000000000000000e+00 0.000000000000000000e+00 -4.187131521000000411e+00 7.252325045000000081e+00 0.000000000000000000e+00 0.000000000000000000e+00 0.000000000000000000e+00 2.000000000000000000e+01
8.381465870999999623e+00 0.000000000000000000e+00 0.000000000000000000e+00 -4.235846937999999895e+00 7.336702629000000364e+00 0.000000000000000000e+00 0.000000000000000000e+00 0.000000000000000000e+00 2.000000000000000000e+01
8.416038130000000450e+00 0.000000000000000000e+00 0.000000000000000000e+00 -4.171800104999999981e+00 7.225770251000000144e+00 0.000000000000000000e+00 0.000000000000000000e+00 0.000000000000000000e+00 2.000000000000000000e+01
8.014713117999999525e+00 0.000000000000000000e+00 0.000000000000000000e+00 -4.223823430000000378e+00 7.315877300000000361e+00 0.000000000000000000e+00 0.000000000000000000e+00 0.000000000000000000e+00 2.000000000000000000e+01
8.389307162999999790e+00 0.000000000000000000e+00 0.000000000000000000e+00 -4.264255226999999593e+00 7.385907233000000183e+00 0.000000000000000000e+00 0.000000000000000000e+00 0.000000000000000000e+00 2.000000000000000000e+01
8.491016107000000090e+00 0.000000000000000000e+00 0.000000000000000000e+00 -4.198317615999999752e+00 7.271699930999999673e+00 0.000000000000000000e+00 0.000000000000000000e+00 0.000000000000000000e+00 2.000000000000000000e+01
8.522356978999999555e+00 0.000000000000000000e+00 0.000000000000000000e+00 -4.172833329000000369e+00 7.227559848000000287e+00 0.000000000000000000e+00 0.000000000000000000e+00 0.000000000000000000e+00 2.000000000000000000e+01
8.613985168999999331e+00 0.000000000000000000e+00 0.000000000000000000e+00 -4.362238594999999997e+00 7.555619414999999783e+00 0.000000000000000000e+00 0.000000000000000000e+00 0.000000000000000000e+00 2.000000000000000000e+01
8.478047616999999647e+00 0.000000000000000000e+00 0.000000000000000000e+00 -4.220794151999999855e+00 7.310630436000000287e+00 0.000000000000000000e+00 0.000000000000000000e+00 0.000000000000000000e+00 2.000000000000000000e+01
8.208555430000000541e+00 0.000000000000000000e+00 0.000000000000000000e+00 -4.450524785999999899e+00 7.708535593999999769e+00 0.000000000000000000e+00 0.000000000000000000e+00 0.000000000000000000e+00 2.000000000000000000e+01
8.571303601000000327e+00 0.000000000000000000e+00 0.000000000000000000e+00 -4.328728714000000366e+00 7.497578595000000234e+00 0.000000000000000000e+00 0.000000000000000000e+00 0.000000000000000000e+00 2.000000000000000000e+01
8.180574790999999735e+00 0.000000000000000000e+00 0.000000000000000000e+00 -4.087496235999999783e+00 7.079751658000000170e+00 0.000000000000000000e+00 0.000000000000000000e+00 0.000000000000000000e+00 2.000000000000000000e+01
8.432042149999999125e+00 0.000000000000000000e+00 0.000000000000000000e+00 -4.266576552000000078e+00 7.389927883999999558e+00 0.000000000000000000e+00 0.000000000000000000e+00 0.000000000000000000e+00 2.000000000000000000e+01
8.309886059000000103e+00 0.000000000000000000e+00 0.000000000000000000e+00 -4.237263361000000117e+00 7.339155944999999903e+00 0.000000000000000000e+00 0.000000000000000000e+00 0.000000000000000000e+00 2.000000000000000000e+01
8.478002766999999551e+00 0.000000000000000000e+00 0.000000000000000000e+00 -4.325370030000000199e+00 7.491761183000000379e+00 0.000000000000000000e+00 0.000000000000000000e+00 0.000000000000000000e+00 2.000000000000000000e+01
8.273921891000000528e+00 0.000000000000000000e+00 0.000000000000000000e+00 -4.350345048000000325e+00 7.535019186000000424e+00 0.000000000000000000e+00 0.000000000000000000e+00 0.000000000000000000e+00 2.000000000000000000e+01
8.185323157999999211e+00 0.000000000000000000e+00 0.000000000000000000e+00 -4.154661442000000093e+00 7.196085215000000090e+00 0.000000000000000000e+00 0.000000000000000000e+00 0.000000000000000000e+00 2.000000000000000000e+01
8.171276591999999894e+00 0.000000000000000000e+00 0.000000000000000000e+00 -4.234430821000000122e+00 7.334249842000000186e+00 0.000000000000000000e+00 0.000000000000000000e+00 0.000000000000000000e+00 2.000000000000000000e+01
8.416872458000000279e+00 0.000000000000000000e+00 0.000000000000000000e+00 -4.248687793000000212e+00 7.358943644000000006e+00 0.000000000000000000e+00 0.000000000000000000e+00 0.000000000000000000e+00 2.000000000000000000e+01
7.938740000000000130e+00 0.000000000000000000e+00 0.000000000000000000e+00 -3.969370000000000065e+00 6.875150999999999790e+00 0.000000000000000000e+00 0.000000000000000000e+00 0.000000000000000000e+00 2.000000000000000000e+01
8.477575775000000036e+00 0.000000000000000000e+00 0.000000000000000000e+00 -4.222699828999999738e+00 7.313931164999999623e+00 0.000000000000000000e+00 0.000000000000000000e+00 0.000000000000000000e+00 2.000000000000000000e+01
8.365281088999999781e+00 0.000000000000000000e+00 0.000000000000000000e+00 -4.262525509999999684e+00 7.382911273999999580e+00 0.000000000000000000e+00 0.000000000000000000e+00 0.000000000000000000e+00 2.000000000000000000e+01
8.280106006000000463e+00 0.000000000000000000e+00 0.000000000000000000e+00 -4.067307650000000052e+00 7.044783996999999687e+00 0.000000000000000000e+00 0.000000000000000000e+00 0.000000000000000000e+00 2.000000000000000000e+01
8.508794551999999456e+00 0.000000000000000000e+00 0.000000000000000000e+00 -4.337870779000000176e+00 7.513413115999999725e+00 0.000000000000000000e+00 0.000000000000000000e+00 0.000000000000000000e+00 2.000000000000000000e+01
8.606745802000000722e+00 0.000000000000000000e+00 0.000000000000000000e+00 -4.216832123999999737e+00 7.303768003000000064e+00 0.000000000000000000e+00 0.000000000000000000e+00 0.000000000000000000e+00 2.000000000000000000e+01
8.320156682000000359e+00 0.000000000000000000e+00 0.000000000000000000e+00 -4.253929398999999556e+00 7.368022372000000431e+00 0.000000000000000000e+00 0.000000000000000000e+00 0.000000000000000000e+00 2.000000000000000000e+01
8.457913993000000019e+00 0.000000000000000000e+00 0.000000000000000000e+00 -4.177040049999999560e+00 7.234846101999999668e+00 0.000000000000000000e+00 0.000000000000000000e+00 0.000000000000000000e+00 2.000000000000000000e+01
8.414508103999999378e+00 0.000000000000000000e+00 0.000000000000000000e+00 -4.245407221999999869e+00 7.353261526999999909e+00 0.000000000000000000e+00 0.000000000000000000e+00 0.000000000000000000e+00 2.000000000000000000e+01
7.838463583000000234e+00 0.000000000000000000e+00 0.000000000000000000e+00 2.956198287999999952e+00 7.696097703000000401e+00 0.000000000000000000e+00 0.000000000000000000e+00 0.000000000000000000e+00 2.000000000000000000e+01
7.938740000000000130e+00 0.000000000000000000e+00 0.000000000000000000e+00 -3.969370000000000065e+00 6.875150999999999790e+00 0.000000000000000000e+00 0.000000000000000000e+00 0.000000000000000000e+00 2.000000000000000000e+01
8.542295298999999176e+00 0.000000000000000000e+00 0.000000000000000000e+00 -4.159036935999999685e+00 7.203663792000000399e+00 0.000000000000000000e+00 0.000000000000000000e+00 0.000000000000000000e+00 2.000000000000000000e+01
7.938740000000000130e+00 0.000000000000000000e+00 0.000000000000000000e+00 -3.969370000000000065e+00 6.875150999999999790e+00 0.000000000000000000e+00 0.000000000000000000e+00 0.000000000000000000e+00 2.000000000000000000e+01
8.389501712999999583e+00 0.000000000000000000e+00 0.000000000000000000e+00 -4.257112177999999858e+00 7.373535107999999560e+00 0.000000000000000000e+00 0.000000000000000000e+00 0.000000000000000000e+00 2.000000000000000000e+01
7.938740000000000130e+00 0.000000000000000000e+00 0.000000000000000000e+00 -3.969370000000000065e+00 6.875150999999999790e+00 0.000000000000000000e+00 0.000000000000000000e+00 0.000000000000000000e+00 2.000000000000000000e+01
8.445438327999999828e+00 0.000000000000000000e+00 0.000000000000000000e+00 -4.266856440999999833e+00 7.390412665999999575e+00 0.000000000000000000e+00 0.000000000000000000e+00 0.000000000000000000e+00 2.000000000000000000e+01
8.595794271000000819e+00 0.000000000000000000e+00 0.000000000000000000e+00 -4.078358431999999922e+00 7.063924515000000071e+00 0.000000000000000000e+00 0.000000000000000000e+00 0.000000000000000000e+00 2.000000000000000000e+01
8.193440107000000694e+00 0.000000000000000000e+00 0.000000000000000000e+00 -4.206530152000000022e+00 7.285924462999999740e+00 0.000000000000000000e+00 0.000000000000000000e+00 0.000000000000000000e+00 2.000000000000000000e+01
8.403512179999999887e+00 0.000000000000000000e+00 0.000000000000000000e+00 -4.212113596000000015e+00 7.295595271999999909e+00 0.000000000000000000e+00 0.000000000000000000e+00 0.000000000000000000e+00 2.000000000000000000e+01
9.029915259999999222e+00 0.000000000000000000e+00 0.000000000000000000e+00 -4.024501047000000220e+00 6.970640781000000175e+00 0.000000000000000000e+00 0.000000000000000000e+00 0.000000000000000000e+00 2.000000000000000000e+01
8.037526593999999136e+00 0.000000000000000000e+00 0.000000000000000000e+00 -4.338753295000000065e+00 7.514941679999999735e+00 0.000000000000000000e+00 0.000000000000000000e+00 0.000000000000000000e+00 2.000000000000000000e+01
8.268014285999999657e+00 0.000000000000000000e+00 0.000000000000000000e+00 -4.240788925000000376e+00 7.345262401000000274e+00 0.000000000000000000e+00 0.000000000000000000e+00 0.000000000000000000e+00 2.000000000000000000e+01
8.445215879999999231e+00 0.000000000000000000e+00 0.000000000000000000e+00 -4.171737599000000074e+00 7.225661987999999702e+00 0.000000000000000000e+00 0.000000000000000000e+00 0.000000000000000000e+00 2.000000000000000000e+01
8.432129710999999972e+00 0.000000000000000000e+00 0.000000000000000000e+00 -4.387373045000000360e+00 7.599153563999999861e+00 0.000000000000000000e+00 0.000000000000000000e+00 0.000000000000000000e+00 2.000000000000000000e+01
8.258022624000000533e+00 0.000000000000000000e+00 0.000000000000000000e+00 -4.366440414999999575e+00 7.562897181000000302e+00 0.000000000000000000e+00 0.000000000000000000e+00 0.000000000000000000e+00 2.000000000000000000e+01
8.334689270000000150e+00 0.000000000000000000e+00 0.000000000000000000e+00 -4.266690378999999922e+00 7.390125038999999951e+00 0.000000000000000000e+00 0.000000000000000000e+00 0.000000000000000000e+00 2.000000000000000000e+01
8.425128529000000199e+00 0.000000000000000000e+00 0.000000000000000000e+00 -4.209879662999999717e+00 7.291725985000000243e+00 0.000000000000000000e+00 0.000000000000000000e+00 0.000000000000000000e+00 2.000000000000000000e+01
8.239835043999999442e+00 0.000000000000000000e+00 0.000000000000000000e+00 -4.243967306000000050e+00 7.350767519999999777e+00 0.000000000000000000e+00 0.000000000000000000e+00 0.000000000000000000e+00 2.000000000000000000e+01
8.472650903999999983e+00 0.000000000000000000e+00 0.000000000000000000e+00 -4.197745473000000338e+00 7.270708950000000392e+00 0.000000000000000000e+00 0.000000000000000000e+00 0.000000000000000000e+00 2.000000000000000000e+01
8.374999844999999610e+00 0.000000000000000000e+00 0.000000000000000000e+00 -4.293328475000000033e+00 7.436263577000000069e+00 0.000000000000000000e+00 0.000000000000000000e+00 0.000000000000000000e+00 2.000000000000000000e+01
8.282818346000000886e+00 0.000000000000000000e+00 0.000000000000000000e+00 -4.264916765999999804e+00 7.387053050999999648e+00 0.000000000000000000e+00 0.000000000000000000e+00 0.000000000000000000e+00 2.000000000000000000e+01
8.442306968000000467e+00 0.000000000000000000e+00 0.000000000000000000e+00 -4.127512905999999759e+00 7.149062566999999646e+00 0.000000000000000000e+00 0.000000000000000000e+00 0.000000000000000000e+00 2.000000000000000000e+01
8.484160347999999630e+00 0.000000000000000000e+00 0.000000000000000000e+00 -4.138041076000000373e+00 7.167297893999999836e+00 0.000000000000000000e+00 0.000000000000000000e+00 0.000000000000000000e+00 2.000000000000000000e+01
8.102584605000000550e+00 0.000000000000000000e+00 0.000000000000000000e+00 -4.148066615000000290e+00 7.184662637999999824e+00 0.000000000000000000e+00 0.000000000000000000e+00 0.000000000000000000e+00 2.000000000000000000e+01
8.484786143999999197e+00 0.000000000000000000e+00 0.000000000000000000e+00 -4.136959616000000395e+00 7.165424750999999759e+00 0.000000000000000000e+00 0.000000000000000000e+00 0.000000000000000000e+00 2.000000000000000000e+01
8.289081322999999557e+00 0.000000000000000000e+00 0.000000000000000000e+00 -4.078673503000000089e+00 7.064470233999999849e+00 0.000000000000000000e+00 0.000000000000000000e+00 0.000000000000000000e+00 2.000000000000000000e+01
8.239844930000000289e+00 0.000000000000000000e+00 0.000000000000000000e+00 -4.235414365999999653e+00 7.335953392000000406e+00 0.000000000000000000e+00 0.000000000000000000e+00 0.000000000000000000e+00 2.000000000000000000e+01
8.258923443000000475e+00 0.000000000000000000e+00 0.000000000000000000e+00 -4.284667703000000216e+00 7.421262679999999889e+00 0.000000000000000000e+00 0.000000000000000000e+00 0.000000000000000000e+00 2.000000000000000000e+01
8.400903882999999794e+00 0.000000000000000000e+00 0.000000000000000000e+00 -4.313382250000000084e+00 7.470997737000000249e+00 0.000000000000000000e+00 0.000000000000000000e+00 0.000000000000000000e+00 2.000000000000000000e+01
8.451381037999999180e+00 0.000000000000000000e+00 0.000000000000000000e+00 -4.317675480000000121e+00 7.478433831000000254e+00 0.000000000000000000e+00 0.000000000000000000e+00 0.000000000000000000e+00 2.000000000000000000e+01
9.300115319999999741e+00 0.000000000000000000e+00 0.000000000000000000e+00 -3.999288482999999950e+00 6.926971336000000257e+00 0.000000000000000000e+00 0.000000000000000000e+00 0.000000000000000000e+00 2.000000000000000000e+01
7.938740000000000130e+00 0.000000000000000000e+00 0.000000000000000000e+00 -3.969370000000000065e+00 6.875150999999999790e+00 0.000000000000000000e+00 0.000000000000000000e+00 0.000000000000000000e+00 2.000000000000000000e+01
8.611372598999999184e+00 0.000000000000000000e+00 0.000000000000000000e+00 -4.044426256999999580e+00 7.005152258999999937e+00 0.000000000000000000e+00 0.000000000000000000e+00 0.000000000000000000e+00 2.000000000000000000e+01
8.533671625000000205e+00 0.000000000000000000e+00 0.000000000000000000e+00 -4.208505458000000310e+00 7.289345792999999851e+00 0.000000000000000000e+00 0.000000000000000000e+00 0.000000000000000000e+00 2.000000000000000000e+01
7.938740000000000130e+00 0.000000000000000000e+00 0.000000000000000000e+00 -3.969370000000000065e+00 6.875150999999999790e+00 0.000000000000000000e+00 0.000000000000000000e+00 0.000000000000000000e+00 2.000000000000000000e+01
8.336983591999999277e+00 0.000000000000000000e+00 0.000000000000000000e+00 -4.178825500000000304e+00 7.237938594000000059e+00 0.000000000000000000e+00 0.000000000000000000e+00 0.000000000000000000e+00 2.000000000000000000e+01
8.904356986999999890e+00 0.000000000000000000e+00 0.000000000000000000e+00 -4.381287957999999705e+00 7.588613882999999838e+00 0.000000000000000000e+00 0.000000000000000000e+00 0.000000000000000000e+00 2.000000000000000000e+01
8.092247626000000693e+00 0.000000000000000000e+00 0.000000000000000000e+00 -4.359800990000000098e+00 7.551397360000000170e+00 0.000000000000000000e+00 0.000000000000000000e+00 0.000000000000000000e+00 2.000000000000000000e+01
8.054409508999999190e+00 0.000000000000000000e+00 0.000000000000000000e+00 -4.220590623999999735e+00 7.310277915000000348e+00 0.000000000000000000e+00 0.000000000000000000e+00 0.000000000000000000e+00 2.000000000000000000e+01
7.938740000000000130e+00 0.000000000000000000e+00 0.000000000000000000e+00 -3.969370000000000065e+00 6.875150999999999790e+00 0.000000000000000000e+00 0.000000000000000000e+00 0.000000000000000000e+00 2.000000000000000000e+01
8.455227094999999693e+00 0.000000000000000000e+00 0.000000000000000000e+00 -4.048675972999999928e+00 7.012512984999999865e+00 0.000000000000000000e+00 0.000000000000000000e+00 0.000000000000000000e+00 2.000000000000000000e+01
8.505430817000000587e+00 0.000000000000000000e+00 0.000000000000000000e+00 -4.217404275999999896e+00 7.304758997999999615e+00 0.000000000000000000e+00 0.000000000000000000e+00 0.000000000000000000e+00 2.000000000000000000e+01
8.528660949000000713e+00 0.000000000000000000e+00 0.000000000000000000e+00 -4.167595247000000391e+00 7.218487223000000341e+00 0.000000000000000000e+00 0.000000000000000000e+00 0.000000000000000000e+00 2.000000000000000000e+01
8.241028877999999835e+00 0.000000000000000000e+00 0.000000000000000000e+00 -4.350584501000000159e+00 7.535433931000000030e+00 0.000000000000000000e+00 0.000000000000000000e+00 0.000000000000000000e+00 2.000000000000000000e+01
8.283314409999999128e+00 0.000000000000000000e+00 0.000000000000000000e+00 -4.212832473999999827e+00 7.296840405000000196e+00 0.000000000000000000e+00 0.000000000000000000e+00 0.000000000000000000e+00 2.000000000000000000e+01
8.312636787000000638e+00 0.000000000000000000e+00 0.000000000000000000e+00 -4.302146310999999557e+00 7.451536519000000247e+00 0.000000000000000000e+00 0.000000000000000000e+00 0.000000000000000000e+00 2.000000000000000000e+01
8.284907125000000150e+00 0.000000000000000000e+00 0.000000000000000000e+00 -4.440845076999999641e+00 7.691769844999999606e+00 0.000000000000000000e+00 0.000000000000000000e+00 0.000000000000000000e+00 2.000000000000000000e+01
8.423524965000000364e+00 0.000000000000000000e+00 0.000000000000000000e+00 -4.391846367000000306e+00 7.606901584000000049e+00 0.000000000000000000e+00 0.000000000000000000e+00 0.000000000000000000e+00 2.000000000000000000e+01
8.477947804999999448e+00 0.000000000000000000e+00 0.000000000000000000e+00 -4.168315729999999775e+00 7.219735135999999720e+00 0.000000000000000000e+00 0.000000000000000000e+00 0.000000000000000000e+00 2.000000000000000000e+01
7.938740000000000130e+00 0.000000000000000000e+00 0.000000000000000000e+00 -3.969370000000000065e+00 6.875150999999999790e+00 0.000000000000000000e+00 0.000000000000000000e+00 0.000000000000000000e+00 2.000000000000000000e+01
7.938740000000000130e+00 0.000000000000000000e+00 0.000000000000000000e+00 -3.969370000000000065e+00 6.875150999999999790e+00 0.000000000000000000e+00 0.000000000000000000e+00 0.000000000000000000e+00 2.000000000000000000e+01
8.516545421000000005e+00 0.000000000000000000e+00 0.000000000000000000e+00 -4.062510905999999977e+00 7.036475793000000145e+00 0.000000000000000000e+00 0.000000000000000000e+00 0.000000000000000000e+00 2.000000000000000000e+01
8.230947484999999730e+00 0.000000000000000000e+00 0.000000000000000000e+00 -4.209184721999999823e+00 7.290522313000000310e+00 0.000000000000000000e+00 0.000000000000000000e+00 0.000000000000000000e+00 2.000000000000000000e+01
8.561986259999999405e+00 0.000000000000000000e+00 0.000000000000000000e+00 -4.132034234999999889e+00 7.156893739000000032e+00 0.000000000000000000e+00 0.000000000000000000e+00 0.000000000000000000e+00 2.000000000000000000e+01
8.318795357999999140e+00 0.000000000000000000e+00 0.000000000000000000e+00 -4.238885183999999917e+00 7.341965025000000367e+00 0.000000000000000000e+00 0.000000000000000000e+00 0.000000000000000000e+00 2.000000000000000000e+01
8.411814276999999507e+00 0.000000000000000000e+00 0.000000000000000000e+00 -4.263566417999999913e+00 7.384714179000000378e+00 0.000000000000000000e+00 0.000000000000000000e+00 0.000000000000000000e+00 2.000000000000000000e+01
8.563902899000000346e+00 0.000000000000000000e+00 0.000000000000000000e+00 -4.229398865000000285e+00 7.325534237000000282e+00 0.000000000000000000e+00 0.000000000000000000e+00 0.000000000000000000e+00 2.000000000000000000e+01
8.418748700000000085e+00 0.000000000000000000e+00 0.000000000000000000e+00 -4.202766479000000110e+00 7.279405588000000371e+00 0.000000000000000000e+00 0.000000000000000000e+00 0.000000000000000000e+00 2.000000000000000000e+01
8.733305172999999755e+00 0.000000000000000000e+00 0.000000000000000000e+00 -4.397187261000000014e+00 7.616152285000000077e+00 0.000000000000000000e+00 0.000000000000000000e+00 0.000000000000000000e+00 2.000000000000000000e+01
8.274970246000000529e+00 0.000000000000000000e+00 0.000000000000000000e+00 -4.283251955999999971e+00 7.418810534000000345e+00 0.000000000000000000e+00 0.000000000000000000e+00 0.000000000000000000e+00 2.000000000000000000e+01
8.634686150000000282e+00 0.000000000000000000e+00 0.000000000000000000e+00 -4.161103138999999729e+00 7.207242562000000241e+00 0.000000000000000000e+00 0.000000000000000000e+00 0.000000000000000000e+00 2.000000000000000000e+01
8.565153824999999443e+00 0.000000000000000000e+00 0.000000000000000000e+00 -4.106056229000000002e+00 7.111898509000000423e+00 0.000000000000000000e+00 0.000000000000000000e+00 0.000000000000000000e+00 2.000000000000000000e+01
7.938740000000000130e+00 0.000000000000000000e+00 0.000000000000000000e+00 -3.969370000000000065e+00 6.875150999999999790e+00 0.000000000000000000e+00 0.000000000000000000e+00 0.000000000000000000e+00 2.000000000000000000e+01
