-6.951160396000000219e+01
-6.880772844999999904e+01
-6.961893584999999973e+01
-6.554564670000000604e+01
-6.954448872999999764e+01
-6.957607396000000222e+01
-6.879920841000000564e+01
-6.950292104000000393e+01
-6.885197807999999497e+01
-6.945493770000000211e+01
-6.928445347000000254e+01
-6.843116827999999430e+01
-6.901683149000000128e+01
-6.914885184999999979e+01
-6.934260439999999903e+01
-6.756994674000000600e+01
-6.859639923999999667e+01
-6.861897315000000219e+01
-6.907302785999999628e+01
-6.933447938999999849e+01
-6.807154405999999369e+01
-6.968941696999999635e+01
-6.920125229999999306e+01
-6.871428002000000390e+01
-6.870752588999999944e+01
-6.842941528999999434e+01
-6.871986286000000632e+01
-6.554378660000000423e+01
-6.907558570000000486e+01
-6.860077832000000342e+01
-6.947410447000000033e+01
-6.871553966000000457e+01
-6.920575094999999521e+01
-6.908492447999999797e+01
-6.959859874999999363e+01
-6.969004954999999768e+01
-6.889948517999999922e+01
-6.554488972000000047e+01
-6.954829447000000187e+01
-6.554417807999999468e+01
-6.967379549000000338e+01
-6.554244982000000164e+01
-6.911337915000000010e+01
-6.941906289000000640e+01
-7.004280144000000519e+01
-6.906888352999999370e+01
-6.847294986999999367e+01
-6.867069005000000459e+01
-6.927767287999999724e+01
-6.900092666000000463e+01
-6.891049726999999336e+01
-6.884192855000000577e+01
-6.888543094000000622e+01
-6.921342624000000399e+01
-6.870157962999999768e+01
-6.849164673999999309e+01
-6.958781650999999613e+01
-6.895294391999999561e+01
-6.874908931000000223e+01
-6.941995880000000341e+01
-6.924690744000000109e+01
-6.944403789999999788e+01
-6.907676564000000496e+01
-6.907522701000000609e+01
-6.943246779000000402e+01
-6.953406642000000204e+01
-6.941189645000000041e+01
-6.845054867000000343e+01
-6.554465620999999942e+01
-6.941044924000000549e+01
-6.977516079000000104e+01
-6.554488972000000047e+01
-6.911588901000000362e+01
-6.736941410000000019e+01
-6.857357894000000442e+01
-6.853837624000000517e+01
-6.554564670000000604e+01
-6.923351709000000653e+01
-6.964881406000000652e+01
-6.945161894999999674e+01
-6.948243521999999928e+01
-6.950804664999999716e+01
-6.960781729999999357e+01
-6.867032134000000099e+01
-6.960443591000000652e+01
-6.967382501000000161e+01
-6.554408521999999948e+01
-6.554337465999999779e+01
-6.936624168999999540e+01
-6.913870927000000677e+01
-6.870446719000000257e+01
-6.973220560000000035e+01
-6.911809001000000308e+01
-6.958182573000000559e+01
-6.954843741000000534e+01
-6.672218875000000082e+01
-6.868260999000000311e+01
-6.878963127999999472e+01
-6.988338663999999767e+01
-6.554465620999999942e+01
