4.108153595000000102e+00 0.000000000000000000e+00 0.000000000000000000e+00 -3.077608999999999900e-02 7.082894264000000106e+00 0.000000000000000000e+00 -2.380899961999999981e+00 2.641288868999999817e+00 3.496078691000000305e+01
4.173776720000000218e+00 0.000000000000000000e+00 0.000000000000000000e+00 -1.800437149999999931e-01 7.030024037999999642e+00 0.000000000000000000e+00 -4.993170020000000098e-01 1.231853188999999960e+00 3.415418940600000042e+01
4.195450020000000002e+00 0.000000000000000000e+00 0.000000000000000000e+00 1.083552099999999935e-01 7.212623897000000284e+00 0.000000000000000000e+00 -1.901710545000000030e+00 1.891478433000000070e+00 3.453948873400000252e+01
4.209446252000000221e+00 0.000000000000000000e+00 0.000000000000000000e+00 5.044177930000000032e-01 7.260881883999999786e+00 0.000000000000000000e+00 1.093847280000000088e+00 5.257140569999999569e-01 3.087493221000000077e+01
4.092919979999999569e+00 0.000000000000000000e+00 0.000000000000000000e+00 1.638608350000000102e-01 7.040160196999999620e+00 0.000000000000000000e+00 -1.610523248000000018e+00 1.322508232999999978e+00 4.877014270299999765e+01
4.094594226999999975e+00 0.000000000000000000e+00 0.000000000000000000e+00 2.251153569999999882e-01 7.052846942999999591e+00 0.000000000000000000e+00 2.105076499999999906e-02 -2.602728149999999907e-01 3.408828671300000224e+01
4.173177804999999907e+00 0.000000000000000000e+00 0.000000000000000000e+00 1.370793509999999882e-01 7.259728114999999704e+00 0.000000000000000000e+00 1.377261035999999939e+00 -1.560370839999999926e-01 2.906412679600000004e+01
4.132348236000000341e+00 0.000000000000000000e+00 0.000000000000000000e+00 3.045272479999999726e-01 7.471355821000000397e+00 0.000000000000000000e+00 -7.152491399999999500e-02 5.544594969999999678e-01 2.914630574199999913e+01
4.156814461999999821e+00 0.000000000000000000e+00 0.000000000000000000e+00 -1.304587269999999966e-01 7.071170730000000404e+00 0.000000000000000000e+00 -2.422327361999999873e+00 2.954677579999999804e+00 3.508047293399999944e+01
4.219084969999999934e+00 0.000000000000000000e+00 0.000000000000000000e+00 -2.759411849999999777e-01 7.191741273999999962e+00 0.000000000000000000e+00 1.345362082999999931e+00 4.517910909999999780e-01 3.425889202900000186e+01
4.130602075999999734e+00 0.000000000000000000e+00 0.000000000000000000e+00 -7.434308400000000372e-02 6.965716625999999856e+00 0.000000000000000000e+00 -2.229852635999999944e+00 -1.279361634000000025e+00 3.480369597300000351e+01
4.094093755000000279e+00 0.000000000000000000e+00 0.000000000000000000e+00 9.768582000000000654e-02 7.264243175999999913e+00 0.000000000000000000e+00 -4.482595469999999804e-01 2.838497960000000209e+00 3.483472997199999810e+01
4.090447292000000346e+00 0.000000000000000000e+00 0.000000000000000000e+00 -2.700360499999999997e-02 7.095328866000000012e+00 0.000000000000000000e+00 -6.948699000000000403e-01 1.398442214999999988e+00 3.160734167900000102e+01
4.203322766000000321e+00 0.000000000000000000e+00 0.000000000000000000e+00 1.013770499999999963e-01 7.112814960999999769e+00 0.000000000000000000e+00 7.688090859999999749e-01 1.477409401000000067e+00 3.405820343199999911e+01
4.183351382999999757e+00 0.000000000000000000e+00 0.000000000000000000e+00 -4.539984300000000222e-02 7.190109630000000251e+00 0.000000000000000000e+00 -1.246849461000000048e+00 1.291980750000000011e+00 3.395849526899999660e+01
4.133939339000000324e+00 0.000000000000000000e+00 0.000000000000000000e+00 8.847492699999999488e-02 7.301034543000000099e+00 0.000000000000000000e+00 1.042877139000000009e+00 -3.143293840000000117e+00 4.009682119800000066e+01
4.146954179999999823e+00 0.000000000000000000e+00 0.000000000000000000e+00 -5.377562699999999946e-02 7.194952267999999762e+00 0.000000000000000000e+00 5.812164579999999914e-01 -2.555314521000000116e+00 3.978240163499999937e+01
4.178629170999999864e+00 0.000000000000000000e+00 0.000000000000000000e+00 -1.157672600000000072e-02 7.088784866000000129e+00 0.000000000000000000e+00 1.041917019999999972e-01 -1.247399859999999971e-01 3.375644362999999970e+01
4.098915437999999689e+00 0.000000000000000000e+00 0.000000000000000000e+00 9.209761499999999379e-02 7.153149291000000076e+00 0.000000000000000000e+00 -9.902114600000000433e-02 2.060456004999999813e+00 3.487435471199999881e+01
4.125408915999999593e+00 0.000000000000000000e+00 0.000000000000000000e+00 -6.528241599999999589e-02 7.066610507000000041e+00 0.000000000000000000e+00 -2.034776905999999830e+00 -2.947792531999999799e+00 3.457506567000000075e+01
4.012050831999999900e+00 0.000000000000000000e+00 0.000000000000000000e+00 -2.260846999999999857e-02 7.222150328999999758e+00 0.000000000000000000e+00 1.707270937000000099e+00 3.351886020999999882e+00 3.512219385899999935e+01
4.277388366000000275e+00 0.000000000000000000e+00 0.000000000000000000e+00 5.808159000000000238e-02 7.435114400999999873e+00 0.000000000000000000e+00 -2.571407780000000143e-01 -3.130892200000000292e-02 2.882899085200000044e+01
4.075969304000000015e+00 0.000000000000000000e+00 0.000000000000000000e+00 1.008047100000000057e-02 7.044781923999999584e+00 0.000000000000000000e+00 1.164327051999999973e+00 -1.687551798999999964e+00 3.932553896600000343e+01
4.159924153000000402e+00 0.000000000000000000e+00 0.000000000000000000e+00 -2.516752219999999762e-01 7.173360381000000174e+00 0.000000000000000000e+00 -1.155532774000000096e+00 2.354367782999999825e+00 3.362505589100000236e+01
4.174688533000000312e+00 0.000000000000000000e+00 0.000000000000000000e+00 5.181859500000000202e-02 7.087094898000000143e+00 0.000000000000000000e+00 -7.410504100000000482e-01 -6.870145010000000552e-01 3.394603380600000264e+01
4.235379706999999883e+00 0.000000000000000000e+00 0.000000000000000000e+00 -3.112165100000000018e-02 7.030120172000000167e+00 0.000000000000000000e+00 7.453994040000000432e-01 9.877959790000000462e-01 3.165393362700000068e+01
4.154895523000000424e+00 0.000000000000000000e+00 0.000000000000000000e+00 4.315991899999999798e-02 7.122836915999999796e+00 0.000000000000000000e+00 -1.692119710000000055e+00 1.423139790000000016e+00 3.409991572199999865e+01
4.191945725000000067e+00 0.000000000000000000e+00 0.000000000000000000e+00 -6.390500000000000564e-05 7.041510181999999674e+00 0.000000000000000000e+00 -1.473105139999999924e+00 -4.511354390000000270e-01 3.277699587699999739e+01
4.102534088999999717e+00 0.000000000000000000e+00 0.000000000000000000e+00 7.901913700000000318e-02 7.191288473000000181e+00 0.000000000000000000e+00 1.803088379999999991e-01 1.871768072999999921e+00 3.057801718800000046e+01
4.161847329999999623e+00 0.000000000000000000e+00 0.000000000000000000e+00 2.289556900000000103e-02 7.185956954999999979e+00 0.000000000000000000e+00 1.161679493999999924e+00 -1.010472707999999997e+00 3.427007268399999873e+01
4.062228079999999686e+00 0.000000000000000000e+00 0.000000000000000000e+00 4.416697230000000141e-01 7.231857412000000096e+00 0.000000000000000000e+00 2.413817450000000087e-01 4.351832139999999849e-01 3.129375212100000070e+01
4.099242098999999584e+00 0.000000000000000000e+00 0.000000000000000000e+00 2.089124069999999944e-01 7.042764474000000163e+00 0.000000000000000000e+00 2.237116000000000104e-01 3.052337110000000187e-01 3.423292067599999910e+01
4.139983209999999580e+00 0.000000000000000000e+00 0.000000000000000000e+00 1.053294500000000015e-02 7.276508006000000250e+00 0.000000000000000000e+00 5.065109599999999546e-01 -2.848025015999999798e+00 3.945073390799999657e+01
4.135759411999999635e+00 0.000000000000000000e+00 0.000000000000000000e+00 1.066287949999999984e-01 7.263869831000000055e+00 0.000000000000000000e+00 1.448010636000000018e+00 9.664524920000000519e-01 3.395762555099999958e+01
4.083076432999999561e+00 0.000000000000000000e+00 0.000000000000000000e+00 4.258782099999999793e-02 7.297365488999999705e+00 0.000000000000000000e+00 1.333053451999999917e+00 8.249645020000000439e-01 3.447146676799999909e+01
4.166307906000000116e+00 0.000000000000000000e+00 0.000000000000000000e+00 3.268644840000000107e-01 7.340259388999999857e+00 0.000000000000000000e+00 2.068726376999999950e+00 4.060590408999999568e+00 3.252027769499999721e+01
4.160197565999999902e+00 0.000000000000000000e+00 0.000000000000000000e+00 7.702252399999999499e-02 7.145220167999999816e+00 0.000000000000000000e+00 4.504241079999999897e-01 2.200221992999999987e+00 3.472279440199999812e+01
4.159591219000000173e+00 0.000000000000000000e+00 0.000000000000000000e+00 -3.415867999999999682e-02 7.097062340999999996e+00 0.000000000000000000e+00 2.399814904999999943e+00 -1.281007550000000106e-01 3.269849101700000205e+01
4.144251135000000197e+00 0.000000000000000000e+00 0.000000000000000000e+00 3.251458819999999972e-01 7.301449186000000147e+00 0.000000000000000000e+00 -9.029577069999999983e-01 -2.743881640000000122e+00 4.274079930199999922e+01
4.191244904000000382e+00 0.000000000000000000e+00 0.000000000000000000e+00 -7.309668599999999405e-02 7.084788706000000325e+00 0.000000000000000000e+00 9.887892230000000504e-01 3.558573607000000028e+00 4.251375409199999922e+01
4.098803926000000430e+00 0.000000000000000000e+00 0.000000000000000000e+00 4.770881240000000023e-01 7.342746408000000002e+00 0.000000000000000000e+00 -4.049621549999999903e-01 6.956622249999999674e-01 3.122613691000000102e+01
4.151995944000000272e+00 0.000000000000000000e+00 0.000000000000000000e+00 -2.906581790000000165e-01 7.297206783000000030e+00 0.000000000000000000e+00 -1.691697959000000084e+00 -1.439717023000000040e+00 3.295278579600000057e+01
4.307612787000000054e+00 0.000000000000000000e+00 0.000000000000000000e+00 -1.635649379999999931e-01 7.240591878000000037e+00 0.000000000000000000e+00 -7.657806350000000428e-01 -1.993169653000000041e+00 3.738673288799999739e+01
4.113922202000000361e+00 0.000000000000000000e+00 0.000000000000000000e+00 6.287922699999999587e-02 7.142488667000000291e+00 0.000000000000000000e+00 1.272229800999999938e+00 2.924981583000000107e+00 3.511776775399999906e+01
4.123371520000000068e+00 0.000000000000000000e+00 0.000000000000000000e+00 1.556024749999999901e-01 7.181650007000000002e+00 0.000000000000000000e+00 1.587336692999999910e+00 -3.252662760999999847e+00 3.417166564600000100e+01
4.339395350000000207e+00 0.000000000000000000e+00 0.000000000000000000e+00 9.906419999999999115e-04 7.053664935999999663e+00 0.000000000000000000e+00 1.477059903000000007e+00 -2.939905699999999927e-02 3.086530511200000149e+01
4.115831941999999799e+00 0.000000000000000000e+00 0.000000000000000000e+00 -2.537931860000000039e-01 7.193137914000000244e+00 0.000000000000000000e+00 1.336750093000000028e+00 -2.086524499999999893e+00 3.524868497199999950e+01
4.144268967000000359e+00 0.000000000000000000e+00 0.000000000000000000e+00 1.040058979999999994e-01 7.283760918999999667e+00 0.000000000000000000e+00 -1.355188094000000065e+00 1.819347599000000093e+00 3.018980580399999880e+01
4.125080684000000275e+00 0.000000000000000000e+00 0.000000000000000000e+00 5.069190300000000343e-02 7.129169476000000394e+00 0.000000000000000000e+00 1.668472780000000100e+00 2.207018225000000111e+00 3.310637948499999794e+01
4.025712698999999617e+00 0.000000000000000000e+00 0.000000000000000000e+00 -1.578129159999999975e-01 7.245877949999999679e+00 0.000000000000000000e+00 -2.103764720000000032e+00 3.397667719000000197e+00 3.410659204800000310e+01
