1.780710000000000015e+00 1.021020000000000039e+00 1.217750000000000110e+00 3.718510000000000204e+00 4.430869999999999642e+00 2.800300000000000011e+00 2.427500000000000213e+00 5.003630000000000244e+00 1.022005000000000052e+01 1.761600000000000110e-01 3.960459999999999869e+00 7.348049999999999748e+00 2.456420000000000048e+00 7.223889999999999922e+00 1.409670000000000023e+01 1.703399999999999914e-01 3.877479999999999816e+00 1.390070000000000050e+01 1.212120000000000086e+00 5.399239999999999817e+00 2.067150000000000176e+01 -6.611399999999999499e-01 1.616340000000000110e+00 2.118370000000000175e+01 1.492520000000000069e+00 2.954219999999999846e+00 2.512869999999999848e+01 -4.797500000000000098e-01 6.735170000000000101e+00 2.523270000000000124e+01 -1.182600000000000040e-01 4.190850000000000186e+00 3.160229999999999961e+01 1.694379999999999997e+00 8.111599999999999255e+00 3.219060000000000343e+01 3.771630000000000038e+00 7.231939999999999813e+00 2.702640000000000153e+00 1.044399999999999995e+00 3.767869999999999830e+00 4.807669999999999888e+00 2.178539999999999921e+00 2.813330000000000108e+00 8.407130000000000436e+00 -3.905899999999999928e-01 6.275380000000000180e+00 8.348950000000000315e+00 -5.514299999999999757e-01 9.507669999999999177e+00 3.366290000000000049e+01 1.774869999999999948e+00 3.731549999999999923e+00 1.093800000000000106e+00 4.367900000000000116e-01 1.506259999999999932e+00 1.515249999999999986e+01 2.236229999999999940e+00 4.824959999999999916e+00 1.526810000000000045e+01 -8.675399999999999778e-01 4.201179999999999914e+00 1.942239999999999966e+01 1.399990000000000068e+00 7.761610000000000120e+00 1.957750000000000057e+01 2.361790000000000056e+00 7.268810000000000215e+00 1.158474999999999966e+01 2.730600000000000249e-01 3.525949999999999918e+00 1.140001999999999960e+01 1.538620000000000099e+00 5.430819999999999759e+00 2.646750000000000114e+01 -5.498899999999999899e-01 9.003450000000000841e+00 2.650390000000000157e+01 1.879480000000000040e+00 3.081640000000000157e+00 3.033680000000000021e+01 -2.851199999999999846e-01 6.760229999999999961e+00 3.103750000000000142e+01 -7.966400000000000148e-01 6.246599999999999930e+00 2.268609999999999971e+01 1.301760000000000028e+00 2.897629999999999928e+00 2.250730000000000075e+01
9.733000000000000540e-01 6.497899999999999787e-01 1.265020000000000033e+00 3.151240000000000041e+00 4.086359999999999992e+00 2.872119999999999784e+00 3.873650000000000038e+00 4.694090000000000096e+00 9.760880000000000223e+00 1.424430000000000085e+00 3.672950000000000159e+00 7.080110000000000348e+00 3.502470000000000194e+00 6.896219999999999573e+00 1.374269999999999925e+01 1.288259999999999961e+00 3.480729999999999880e+00 1.363189999999999991e+01 2.715180000000000149e+00 4.857990000000000030e+00 2.055900000000000105e+01 8.283000000000000362e-01 1.642060000000000075e+00 2.007789999999999964e+01 3.003820000000000157e+00 2.033589999999999787e+00 2.458950000000000102e+01 9.144299999999999651e-01 5.369819999999999816e+00 2.467030000000000101e+01 4.819399999999999795e-01 2.288940000000000197e+00 3.105760000000000076e+01 2.283609999999999918e+00 6.242910000000000181e+00 3.138739999999999952e+01 2.944550000000000001e+00 6.759149999999999991e+00 2.624559999999999782e+00 1.167359999999999953e+00 3.253940000000000055e+00 4.551160000000000316e+00 3.283170000000000144e+00 2.433399999999999785e+00 8.322089999999999321e+00 1.029400000000000093e+00 6.040700000000000180e+00 7.944160000000000110e+00 3.313900000000000179e-01 7.583879999999999733e+00 3.319039999999999679e+01 8.761499999999999844e-01 3.272120000000000140e+00 1.120999999999999996e+00 1.439240000000000075e+00 1.070300000000000029e+00 1.501960000000000051e+01 3.382600000000000051e+00 4.516879999999999562e+00 1.484120000000000061e+01 8.349100000000000410e-01 4.116939999999999600e+00 1.901879999999999882e+01 2.805849999999999955e+00 7.322350000000000136e+00 1.899060000000000059e+01 3.082749999999999879e+00 6.807520000000000238e+00 1.124131000000000036e+01 1.543199999999999905e+00 3.228369999999999962e+00 1.104595999999999911e+01 2.998009999999999842e+00 4.239559999999999995e+00 2.595649999999999835e+01 7.679899999999999505e-01 7.799669999999999881e+00 2.587969999999999970e+01 2.469590000000000174e+00 1.232779999999999987e+00 2.972810000000000130e+01 1.785200000000000120e-01 4.900140000000000384e+00 3.032700000000000173e+01 6.647699999999999720e-01 5.872959999999999958e+00 2.225199999999999889e+01 2.953629999999999978e+00 2.353200000000000180e+00 2.196440000000000126e+01
1.879490000000000105e+00 1.130300000000000082e+00 1.272350000000000092e+00 3.901530000000000165e+00 4.579320000000000057e+00 2.781829999999999803e+00 2.688790000000000013e+00 4.858640000000000292e+00 1.022613999999999912e+01 1.476800000000000057e-01 3.875879999999999992e+00 7.217830000000000190e+00 2.795490000000000030e+00 7.121959999999999624e+00 1.402074999999999960e+01 5.258899999999999686e-01 3.496680000000000010e+00 1.372165000000000035e+01 1.548459999999999948e+00 5.012170000000000236e+00 2.043984999999999985e+01 -3.462999999999999967e-01 8.229290000000000660e+00 2.079925000000000068e+01 1.963920000000000110e+00 2.460900000000000087e+00 2.483924999999999983e+01 -7.037999999999999812e-02 6.131579999999999586e+00 2.489965000000000117e+01 4.073899999999999744e-01 3.546129999999999782e+00 3.117324999999999946e+01 2.448339999999999961e+00 7.494489999999999874e+00 3.177384999999999948e+01 4.059499999999999886e+00 7.303759999999999586e+00 2.760569999999999968e+00 1.116419999999999968e+00 3.798090000000000188e+00 4.762139999999999596e+00 2.269120000000000026e+00 2.602180000000000160e+00 8.413569999999999993e+00 -6.081999999999999906e-02 6.141810000000000436e+00 8.242570000000000618e+00 3.535800000000000054e-01 8.995050000000000878e+00 3.328435000000000343e+01 1.898689999999999989e+00 3.822490000000000165e+00 1.039169999999999927e+00 4.995499999999999940e-01 1.155259999999999954e+00 1.505855000000000032e+01 2.668860000000000010e+00 4.536190000000000389e+00 1.493934999999999924e+01 -5.346699999999999786e-01 3.884949999999999903e+00 1.926924999999999955e+01 1.681310000000000082e+00 7.503180000000000405e+00 1.925554999999999950e+01 2.777050000000000018e+00 7.128269999999999662e+00 1.152004999999999946e+01 5.828299999999999592e-01 3.422359999999999847e+00 1.123315999999999981e+01 2.116359999999999797e+00 4.898119999999999585e+00 2.599494999999999933e+01 -8.780000000000000304e-02 1.455719999999999903e+00 2.620745000000000147e+01 2.437640000000000029e+00 2.344770000000000021e+00 2.998075000000000045e+01 3.299400000000000110e-01 6.097150000000000070e+00 3.058915000000000006e+01 -3.698199999999999821e-01 5.943950000000000067e+00 2.225195000000000078e+01 1.794680000000000053e+00 2.399239999999999817e+00 2.234414999999999907e+01
2.845159999999999911e+00 1.422050000000000036e+00 1.524210000000000065e+00 1.257120000000000015e+00 5.222220000000000084e+00 1.943349999999999911e+00 4.004620000000000068e+00 5.720499999999999474e-01 7.993140000000000356e+00 2.227860000000000174e+00 4.275039999999999729e+00 7.568480000000000096e+00 3.617109999999999825e+00 3.148519999999999985e+00 1.207901000000000025e+01 1.805490000000000039e+00 6.782399999999999984e+00 1.195011000000000045e+01 3.640200000000000102e+00 1.515260000000000051e+00 1.780340999999999951e+01 1.797199999999999909e+00 5.170889999999999986e+00 1.827620999999999896e+01 3.192159999999999886e+00 7.635049999999999670e+00 2.238781000000000176e+01 4.822669999999999568e+00 3.549440000000000150e+00 2.184910999999999959e+01 5.309040000000000425e+00 2.600389999999999979e+00 2.894670999999999950e+01 3.189729999999999954e+00 6.360350000000000392e+00 2.721171000000000006e+01 2.610539999999999861e+00 1.353499999999999925e+00 4.062680000000000291e+00 3.351589999999999847e+00 5.494909999999999961e+00 3.267180000000000195e+00 4.348860000000000170e+00 2.921940000000000204e+00 6.728279999999999816e+00 2.240930000000000089e+00 6.808500000000000441e+00 6.682620000000000005e+00 6.282400000000000206e-01 2.763599999999999945e-01 1.925000000000000044e-01 3.133719999999999839e+00 3.586219999999999963e+00 4.116000000000000214e-02 2.364090000000000025e+00 2.656769999999999854e+00 1.405381000000000036e+01 4.139499999999999957e+00 6.117600000000000371e+00 1.348831000000000024e+01 2.042819999999999858e+00 7.442079999999999806e+00 1.684490999999999872e+01 3.870509999999999895e+00 4.112449999999999939e+00 1.712911000000000072e+01 9.766200000000000436e-01 1.535719999999999974e+00 1.040057999999999971e+01 3.109129999999999949e+00 4.854169999999999874e+00 1.017450999999999972e+01 2.193950000000000067e+00 6.751660000000000217e+00 2.459411000000000058e+01 3.390140000000000153e+00 2.438499999999999890e+00 2.353311000000000064e+01 3.084830000000000183e+00 1.665119999999999933e+00 2.749951000000000079e+01 5.336700000000000443e+00 4.728290000000000326e+00 2.719870999999999839e+01 2.524620000000000086e+00 2.128670000000000062e+00 2.021251000000000175e+01 5.068579999999999863e+00 5.929339999999999833e+00 2.062901000000000096e+01
1.269260000000000055e+00 3.845279999999999809e+00 1.544969999999999954e+00 2.826509999999999856e+00 1.753599999999999881e-01 1.655070000000000041e+00 1.047840000000000105e+00 1.141869999999999941e+00 8.557700000000000529e+00 3.273130000000000095e+00 4.253720000000000390e+00 8.761599999999999611e+00 1.117420000000000080e+00 6.010629999999999917e+00 1.308985000000000021e+01 3.215920000000000112e+00 2.440389999999999837e+00 1.303667000000000087e+01 9.520199999999999774e-01 3.577710000000000168e+00 3.511802000000000135e+01 3.016090000000000160e+00 7.214690000000000047e+00 3.487501999999999924e+01 3.580099999999999949e-01 2.123409999999999798e+00 3.941342000000000212e+01 2.000469999999999970e+00 5.704799999999999649e+00 3.905221999999999838e+01 -1.213959999999999928e+00 7.411229999999999762e+00 4.613911999999999836e+01 8.086100000000000509e-01 3.746960000000000068e+00 4.617942000000000036e+01 3.276609999999999800e+00 5.004400000000000404e+00 2.979379999999999917e+00 8.232300000000000173e-01 1.257050000000000001e+00 2.884269999999999889e+00 1.157640000000000002e+00 3.738900000000000112e+00 7.401239999999999597e+00 3.407109999999999861e+00 7.048370000000000246e+00 7.455129999999999590e+00 1.583609999999999962e+00 3.688109999999999999e+00 4.865012000000000114e+01 -7.210600000000000342e-01 7.168910000000000338e+00 4.848051999999999850e+01 3.256400000000000183e+00 6.974490000000000300e+00 1.449334999999999951e+01 1.312079999999999913e+00 3.497900000000000009e+00 1.436843999999999966e+01 -1.002439999999999998e+00 2.397240000000000038e+00 3.364992000000000161e+01 8.718200000000000394e-01 6.008289999999999687e+00 3.373452000000000339e+01 3.082419999999999938e+00 4.543899999999999828e+00 1.126664000000000065e+01 1.176930000000000032e+00 1.013470000000000093e+00 1.155058000000000007e+01 2.285499999999999865e+00 3.475470000000000059e+00 4.047592000000000212e+01 8.210000000000000631e-02 6.853489999999999860e+00 4.045562000000000324e+01 7.895400000000000196e-01 6.104630000000000223e+00 4.495772000000000190e+01 -1.231649999999999912e+00 2.670700000000000074e+00 4.486672000000000082e+01 -6.904400000000000537e-01 5.349940000000000140e+00 3.693012000000000228e+01 1.356740000000000057e+00 1.542459999999999942e+00 3.707751999999999981e+01
1.681189999999999962e+00 1.327390000000000070e+00 1.227430000000000021e+00 3.810410000000000075e+00 4.749390000000000001e+00 2.692369999999999930e+00 2.007960000000000189e+00 4.088689999999999714e+00 1.012364999999999959e+01 4.144079999999999764e+00 3.726649999999999796e+00 7.143530000000000157e+00 1.668879999999999919e+00 5.798750000000000071e+00 1.397095000000000020e+01 3.598300000000000054e+00 2.459270000000000067e+00 1.392774999999999963e+01 2.741899999999999893e-01 3.582850000000000090e+00 2.021944999999999837e+01 2.083070000000000199e+00 -5.739999999999999963e-02 1.988524999999999920e+01 2.747299999999999742e-01 7.339299999999999713e-01 2.429595000000000127e+01 2.488649999999999807e+00 4.357680000000000220e+00 2.428594999999999970e+01 2.902750000000000163e+00 1.399140000000000050e+00 3.098294999999999888e+01 1.165419999999999900e+00 5.316550000000000331e+00 3.139535000000000053e+01 3.790140000000000065e+00 3.750700000000000145e-01 2.653659999999999908e+00 5.551700000000000523e-01 3.335719999999999796e+00 4.696310000000000429e+00 1.797109999999999985e+00 2.237389999999999990e+00 8.378780000000000783e+00 2.954390000000000072e+00 5.722970000000000113e+00 8.250830000000000553e+00 2.636540000000000106e+00 6.769529999999999603e+00 3.312944999999999851e+01 1.866600000000000037e+00 3.925749999999999851e+00 1.089350000000000041e+00 3.614030000000000076e+00 1.095799999999999969e-01 1.509575000000000067e+01 1.598109999999999919e+00 3.454740000000000144e+00 1.529705000000000048e+01 2.389409999999999812e+00 2.296829999999999927e+00 1.879414999999999836e+01 2.834300000000000153e-01 5.726099999999999746e+00 1.864114999999999966e+01 1.646989999999999954e+00 6.336319999999999730e+00 1.151862999999999992e+01 3.973660000000000192e+00 2.654129999999999878e+00 1.153064000000000000e+01 3.901200000000000223e-01 3.009549999999999947e+00 2.560794999999999888e+01 2.602329999999999810e+00 6.644529999999999603e+00 2.558115000000000094e+01 7.929100000000000037e-01 3.793799999999999950e-01 2.968155000000000143e+01 3.216930000000000067e+00 3.966219999999999857e+00 3.016945000000000121e+01 2.152699999999999836e+00 4.585740000000000371e+00 2.177185000000000059e+01 3.979179999999999939e+00 8.676199999999999468e-01 2.177155000000000129e+01
2.296629999999999949e+00 1.108500000000000041e+00 1.174679999999999946e+00 2.458500000000000130e-01 4.783879999999999910e+00 1.657750000000000057e+00 4.475880000000000081e+00 6.998039999999999594e+00 7.382410000000000139e+00 2.450860000000000039e+00 3.644530000000000047e+00 7.462069999999999759e+00 6.245600000000000041e-01 2.524020000000000152e+00 1.114911000000000030e+01 2.810369999999999813e+00 6.248409999999999798e+00 1.116291000000000011e+01 2.572839999999999794e+00 1.355129999999999946e+00 1.678100999999999843e+01 4.633689999999999642e+00 4.856460000000000221e+00 1.680960999999999927e+01 5.195179999999999687e+00 6.885110000000000063e+00 2.073050999999999888e+01 3.046209999999999862e+00 3.298239999999999839e+00 2.054600999999999900e+01 1.340389999999999970e+00 2.329229999999999912e+00 2.705210999999999899e+01 3.297959999999999781e+00 5.826529999999999987e+00 2.637741000000000113e+01 2.586440000000000072e+00 7.945799999999999530e-01 3.571989999999999998e+00 7.007900000000000240e-01 4.479049999999999976e+00 4.073179999999999801e+00 3.920399999999999996e-01 2.289019999999999833e+00 6.342500000000000249e+00 2.467670000000000030e+00 5.839050000000000296e+00 5.985579999999999679e+00 1.824219999999999953e+00 6.999520000000000408e+00 2.885281000000000162e+01 2.418960000000000221e+00 3.811420000000000030e+00 9.281000000000000361e-02 7.365000000000000435e-01 2.331850000000000200e+00 1.350080999999999953e+01 2.996319999999999872e+00 6.357920000000000016e+00 1.363580999999999932e+01 4.663899999999999935e+00 1.182000000000000065e-02 1.575380999999999965e+01 2.595040000000000013e+00 3.670500000000000096e+00 1.553641000000000005e+01 2.558710000000000040e+00 1.253390000000000004e+00 9.751879999999999882e+00 8.042300000000000004e-01 5.157540000000000013e+00 9.832069999999999865e+00 1.498170000000000002e+00 4.865200000000000080e-01 2.292110999999999876e+01 2.895230000000000192e+00 2.983849999999999891e+00 2.300180999999999898e+01 3.508630000000000138e+00 1.167059999999999986e+00 2.583911000000000158e+01 5.406240000000000379e+00 4.581179999999999808e+00 2.532421000000000078e+01 5.104519999999999946e+00 2.272019999999999929e+00 1.902930999999999884e+01 3.125329999999999941e+00 5.898069999999999702e+00 1.932991000000000170e+01
1.401170000000000027e+00 1.417750000000000066e+00 1.441049999999999942e+00 4.088079999999999714e+00 4.996909999999999741e+00 1.298119999999999941e+00 3.723770000000000024e+00 5.493299999999999850e-01 6.626809999999999867e+00 2.246309999999999807e+00 3.942070000000000185e+00 7.620910000000000295e+00 7.683499999999999774e-01 2.983089999999999797e+00 1.119119000000000064e+01 2.472599999999999909e+00 6.734609999999999985e+00 1.103218999999999994e+01 2.074939999999999785e+00 1.065620000000000012e+00 1.680889000000000166e+01 4.020120000000000360e+00 4.918870000000000076e+00 1.749379000000000062e+01 2.044700000000000129e-01 5.184800000000000519e-01 2.096208999999999989e+01 2.460809999999999942e+00 4.184669999999999668e+00 2.090448999999999913e+01 3.947350000000000136e+00 2.342499999999999805e+00 2.662039000000000044e+01 1.991889999999999938e+00 6.590370000000000061e+00 2.686109000000000080e+01 2.549659999999999815e+00 1.999689999999999968e+00 3.505300000000000082e+00 1.354139999999999899e+00 4.883049999999999891e+00 3.466479999999999784e+00 2.999700000000000144e-01 2.987779999999999880e+00 6.045889999999999986e+00 2.070689999999999920e+00 6.450149999999999828e+00 6.332189999999999763e+00 3.837530000000000108e+00 7.987210000000000143e+00 2.913038999999999845e+01 1.841069999999999984e+00 4.355559999999999654e+00 2.874108999999999980e+01 3.336530000000000218e+00 3.114390000000000214e+00 1.317139000000000060e+01 2.438889999999999780e+00 7.306739999999999569e+00 1.343519000000000041e+01 3.190700000000000203e-01 7.146899999999999586e+00 1.604579000000000022e+01 2.019289999999999807e+00 3.652690000000000214e+00 1.625538999999999845e+01 2.664989999999999970e+00 1.793579999999999952e+00 9.601559999999999206e+00 4.672700000000000187e-01 5.419850000000000279e+00 9.689690000000000580e+00 3.699650000000000105e+00 7.037620000000000431e+00 2.332919000000000054e+01 2.932249999999999801e+00 4.356359999999999566e+00 2.331829000000000107e+01 1.776149999999999896e+00 1.312680000000000069e+00 2.515539000000000058e+01 4.073690000000000033e+00 4.955350000000000144e+00 2.565888999999999953e+01 3.587199999999999833e-01 2.936799999999999855e+00 1.965728999999999971e+01 2.499639999999999862e+00 6.759409999999999918e+00 1.950419000000000125e+01
1.773849999999999927e+00 9.766500000000000181e-01 1.190180000000000016e+00 3.678830000000000044e+00 4.427830000000000155e+00 2.781610000000000138e+00 2.388500000000000068e+00 5.070059999999999789e+00 1.020553999999999917e+01 1.779799999999999993e-01 4.034749999999999837e+00 7.365599999999999703e+00 2.396269999999999900e+00 7.311340000000000394e+00 1.414303999999999917e+01 1.124399999999999983e-01 4.025830000000000020e+00 1.395334000000000074e+01 1.185859999999999914e+00 5.555209999999999759e+00 2.072253999999999863e+01 -6.560599999999999765e-01 1.870740000000000069e+00 2.126943999999999946e+01 1.487889999999999935e+00 3.210059999999999913e+00 2.520703999999999922e+01 -5.434400000000000341e-01 6.963829999999999742e+00 2.532013999999999854e+01 -1.887000000000000066e-01 4.464279999999999582e+00 3.172363999999999962e+01 1.584680000000000089e+00 8.419879999999999143e+00 3.229034000000000049e+01 3.712390000000000079e+00 7.244309999999999583e+00 2.649059999999999970e+00 1.074880000000000058e+00 3.762509999999999799e+00 4.838020000000000209e+00 2.253120000000000012e+00 2.876170000000000115e+00 8.417109999999999204e+00 -5.074300000000000477e-01 6.382559999999999789e+00 8.359989999999999810e+00 -7.347500000000000142e-01 9.793639999999999901e+00 3.382804000000000144e+01 1.756999999999999895e+00 3.698609999999999953e+00 1.136390000000000011e+00 4.924700000000000188e-01 1.613269999999999982e+00 1.520013999999999932e+01 2.176200000000000134e+00 5.025159999999999627e+00 1.538484000000000052e+01 -9.028699999999999504e-01 4.320509999999999629e+00 1.950544000000000011e+01 1.363450000000000051e+00 7.934560000000000279e+00 1.968494000000000099e+01 2.264860000000000095e+00 7.373300000000000409e+00 1.156639999999999979e+01 2.326400000000000134e-01 3.604620000000000157e+00 1.143229000000000006e+01 1.460520000000000040e+00 5.665460000000000385e+00 2.657473999999999847e+01 -7.085399999999999476e-01 9.180429999999999424e+00 2.657563999999999993e+01 1.873559999999999892e+00 3.376889999999999947e+00 3.044513999999999854e+01 -3.864799999999999902e-01 7.045049999999999812e+00 3.117973999999999890e+01 -8.625399999999999734e-01 6.436790000000000234e+00 2.284423999999999921e+01 1.280129999999999990e+00 3.131149999999999878e+00 2.259064000000000050e+01
1.813260000000000094e+00 1.230250000000000066e+00 1.155839999999999979e+00 3.578780000000000072e+00 4.816580000000000084e+00 2.821930000000000049e+00 2.140579999999999927e+00 4.427109999999999879e+00 1.021997999999999962e+01 3.996319999999999872e+00 3.669840000000000213e+00 7.127629999999999910e+00 1.760359999999999925e+00 6.303049999999999820e+00 1.403255000000000052e+01 4.334649999999999892e+00 2.741270000000000095e+00 1.393754999999999988e+01 9.038699999999999513e-01 3.802020000000000177e+00 2.040054999999999907e+01 2.889600000000000168e+00 4.267699999999999827e-01 2.025835000000000008e+01 1.339439999999999964e+00 1.389480000000000048e+00 2.459744999999999848e+01 3.219710000000000072e+00 4.783439999999999692e+00 2.439574999999999960e+01 3.745750000000000135e+00 2.062910000000000021e+00 3.105845000000000056e+01 1.747120000000000006e+00 6.139809999999999768e+00 3.135654999999999859e+01 3.939670000000000005e+00 3.291399999999999881e-01 2.728790000000000049e+00 6.554299999999999571e-01 3.507179999999999964e+00 4.624159999999999826e+00 1.989849999999999897e+00 2.269350000000000200e+00 8.067059999999999675e+00 3.335059999999999913e+00 5.944910000000000139e+00 8.130140000000000811e+00 4.071410000000000196e+00 4.961400000000000254e-01 3.316405000000000314e+01 1.610630000000000006e+00 3.982790000000000052e+00 1.188250000000000028e+00 4.049360000000000070e+00 3.159199999999999786e-01 1.517184999999999917e+01 2.217000000000000082e+00 3.978000000000000203e+00 1.515145000000000053e+01 2.973700000000000010e+00 2.918050000000000033e+00 1.883845000000000169e+01 6.201400000000000245e-01 6.325890000000000235e+00 1.914065000000000083e+01 1.973970000000000002e+00 6.778089999999999726e+00 1.156677999999999962e+01 4.263560000000000016e+00 3.033329999999999860e+00 1.137148000000000003e+01 1.241889999999999938e+00 3.793979999999999908e+00 2.569904999999999973e+01 3.181579999999999853e+00 7.431639999999999802e+00 2.574214999999999876e+01 1.677149999999999919e+00 1.036720000000000086e+00 2.979684999999999917e+01 3.863510000000000222e+00 4.599070000000000213e+00 3.051235000000000142e+01 2.885699999999999932e+00 5.266289999999999694e+00 2.195945000000000036e+01 4.882390000000000008e+00 1.746510000000000007e+00 2.202064999999999984e+01
3.529409999999999936e+00 1.145499999999999963e+00 1.435880000000000045e+00 1.362360000000000015e+00 4.624100000000000321e+00 2.861920000000000019e+00 -1.471300000000000108e-01 5.095100000000000406e+00 1.006054999999999922e+01 1.658439999999999914e+00 3.907010000000000094e+00 7.385220000000000340e+00 -7.362000000000000488e-02 1.104559999999999986e+00 1.417736000000000018e+01 2.221049999999999969e+00 4.565839999999999677e+00 1.375186000000000064e+01 1.922909999999999897e+00 6.419599999999999751e-01 2.116166000000000125e+01 -5.289800000000000058e-01 5.128720000000000390e+00 1.829176000000000002e+01 1.725060000000000038e+00 5.445280000000000342e+00 2.468496000000000024e+01 -1.155000000000000054e-01 1.891969999999999930e+00 2.490266000000000091e+01 -1.600289999999999990e+00 3.253599999999999826e-01 3.173115999999999914e+01 5.010700000000000154e-01 4.300119999999999720e+00 3.252526000000000295e+01 1.460639999999999938e+00 3.438999999999999835e-01 3.020109999999999850e+00 1.745219999999999994e+00 3.175889999999999880e+00 4.824069999999999858e+00 -3.603999999999999981e-01 2.785969999999999835e+00 8.588889999999999247e+00 1.899580000000000046e+00 6.168330000000000091e+00 8.740510000000000446e+00 -1.866549999999999931e+00 -1.094179999999999930e+00 3.402255999999999858e+01 3.486489999999999867e+00 3.836549999999999905e+00 1.221740000000000048e+00 1.990359999999999907e+00 2.165919999999999845e+00 1.526135999999999981e+01 9.765000000000000069e-02 5.661719999999999864e+00 1.541806000000000054e+01 -2.233600000000000030e-01 6.670599999999999863e-01 1.925235999999999947e+01 1.570969999999999978e+00 3.724629999999999885e+00 1.900616000000000128e+01 3.338830000000000187e+00 -6.346000000000000252e-02 1.188580999999999932e+01 1.699199999999999877e-01 3.541780000000000150e+00 1.216763000000000083e+01 1.922060000000000102e+00 7.177400000000000446e-01 2.598036000000000101e+01 -2.786600000000000188e-01 4.374520000000000408e+00 2.600936000000000092e+01 4.825499999999999790e-01 -7.820300000000000029e-01 3.052225999999999928e+01 -1.464490000000000069e+00 2.877800000000000136e+00 3.155516000000000076e+01 -2.236200000000000132e-01 1.953019999999999978e+00 2.241565999999999903e+01 1.978760000000000074e+00 5.218659999999999854e+00 2.214875999999999934e+01
3.463709999999999845e+00 1.150849999999999929e+00 1.347059999999999924e+00 1.552319999999999922e+00 4.753309999999999924e+00 2.765460000000000029e+00 3.713630000000000209e+00 5.511000000000000121e+00 9.897510000000000474e+00 1.594740000000000046e+00 4.062179999999999680e+00 7.169500000000000206e+00 3.690620000000000012e+00 8.285970000000000724e+00 1.366766999999999932e+01 2.043810000000000127e+00 4.558970000000000411e+00 1.367647000000000013e+01 1.007190000000000030e+00 4.904359999999999609e+00 2.126486999999999838e+01 3.164280000000000204e+00 8.598129999999999384e+00 2.080756999999999834e+01 7.462400000000000144e-01 2.520890000000000075e+00 2.522366999999999848e+01 2.904729999999999812e+00 5.947720000000000340e+00 2.531176999999999921e+01 1.895420000000000105e+00 4.910059999999999647e+00 3.162217000000000056e+01 -1.486999999999999954e-02 8.942830000000000723e+00 3.190206999999999837e+01 1.436649999999999983e+00 7.467080000000000162e+00 2.803729999999999833e+00 4.847099999999999742e-01 3.575250000000000039e+00 4.704959999999999809e+00 3.668089999999999851e+00 3.016160000000000174e+00 8.441219999999999501e+00 1.669440000000000035e+00 6.570780000000000065e+00 8.059580000000000410e+00 2.277249999999999996e+00 3.062930000000000152e+00 3.366136999999999802e+01 3.443690000000000140e+00 3.798210000000000086e+00 1.064230000000000009e+00 1.713600000000000012e+00 2.103680000000000216e+00 1.501216999999999935e+01 -7.120999999999999552e-02 5.874489999999999768e+00 1.483916999999999931e+01 3.050689999999999902e+00 3.934029999999999916e+00 1.986206999999999923e+01 9.806799999999999962e-01 7.238550000000000040e+00 1.981397000000000119e+01 2.137100000000000111e-01 7.917810000000000237e+00 1.124151999999999951e+01 1.914120000000000044e+00 4.034639999999999560e+00 1.127349000000000068e+01 7.729200000000000514e-01 4.857249999999999623e+00 2.648617000000000132e+01 2.897670000000000190e+00 8.447680000000000078e+00 2.639147000000000176e+01 -2.260399999999999909e-01 3.915739999999999998e+00 3.016556999999999888e+01 1.862260000000000026e+00 7.421249999999999680e+00 3.093907000000000096e+01 2.983830000000000204e+00 6.270129999999999981e+00 2.271677000000000035e+01 9.867899999999999450e-01 2.383910000000000196e+00 2.265417000000000058e+01
2.391350000000000087e+00 1.328140000000000098e+00 1.522569999999999979e+00 3.618899999999999895e-01 4.741679999999999673e+00 1.957699999999999996e+00 3.729900000000000215e+00 6.427019999999999733e+00 8.500870000000000815e+00 1.641929999999999890e+00 3.076709999999999834e+00 8.064819999999999212e+00 -5.328999999999999709e-02 1.797879999999999923e+00 1.218252000000000024e+01 2.036070000000000046e+00 5.562899999999999956e+00 1.194172000000000011e+01 1.504890000000000061e+00 1.859569999999999945e+00 1.847042000000000073e+01 -3.616099999999999870e-01 5.531880000000000130e+00 1.875911999999999935e+01 3.499859999999999971e+00 1.656130000000000102e+00 2.239712000000000103e+01 1.477649999999999908e+00 5.250079999999999636e+00 2.277571999999999974e+01 3.300019999999999953e+00 4.075980000000000381e+00 2.926961999999999975e+01 1.079550000000000010e+00 7.550399999999999778e+00 2.935942000000000007e+01 2.156500000000000083e-01 2.031629999999999825e+00 2.976309999999999789e+00 2.557760000000000034e+00 6.002069999999999794e+00 3.140439999999999898e+00 3.720380000000000020e+00 1.779789999999999983e+00 7.199670000000000236e+00 1.644980000000000109e+00 5.506380000000000052e+00 7.133499999999999730e+00 6.707000000000000461e-02 8.373250000000000526e+00 3.150921999999999912e+01 1.865299999999999958e+00 4.865569999999999951e+00 3.133411999999999864e+01 1.613669999999999938e+00 3.172000000000000153e+00 1.392381999999999920e+01 -3.039999999999999925e-01 5.181429999999999758e+00 1.376301999999999914e+01 3.549230000000000107e+00 7.774699999999999944e-01 1.710462000000000060e+01 1.687559999999999949e+00 4.279119999999999813e+00 1.747812000000000054e+01 2.154850000000000154e+00 8.999599999999999822e-01 1.051563999999999943e+01 1.844500000000000028e-01 4.508860000000000312e+00 1.028969000000000023e+01 1.752639999999999976e+00 1.980110000000000037e+00 2.409702000000000055e+01 8.778799999999999937e-01 6.317169999999999952e+00 2.519922000000000040e+01 1.395040000000000058e+00 2.840370000000000061e+00 2.804761999999999844e+01 3.137080000000000091e+00 6.524659999999999904e+00 2.807351999999999848e+01 3.491810000000000080e+00 4.315360000000000085e+00 2.124622000000000099e+01 1.643100000000000005e+00 7.613979999999999748e+00 2.072411999999999921e+01