-8.401400000000000534e-02 -4.402999999999999969e-02 1.870670000000000111e-01 -6.501400000000000234e-02 -6.643999999999999732e-03 4.083339999999999748e-01 -2.932319999999999927e-01 -3.152679999999999927e-01 4.419339999999999935e-01 -3.184270000000000156e-01 4.579929999999999835e-01 -7.062359999999999749e-01 -2.047799999999999968e-02 2.072360000000000035e-01 1.918600000000000028e-01 1.036689999999999973e-01 -3.165399999999999880e-01 2.996599999999999958e-02 -1.971249999999999947e-01 -3.831970000000000098e-01 -1.580330000000000068e-01 -2.625910000000000188e-01 -2.122519999999999962e-01 -7.266059999999999741e-01 1.127279999999999949e-01 7.966600000000000348e-01 -4.761399999999999660e-02 -1.318799999999999972e-01 -1.015260999999999969e+00 -1.780920000000000003e-01 -3.816570000000000240e-01 -9.740200000000000247e-02 -5.592099999999999849e-02 7.038800000000000612e-02 1.649289999999999923e-01 -3.388399999999999745e-02 4.834299999999999708e-02 2.500199999999999992e-02 -2.882080000000000197e-01 -1.103900000000000020e-02 -1.050500000000000045e-02 -1.976829999999999976e-01 2.578710000000000169e-01 -6.584349999999999925e-01 2.306799999999999962e-01 3.502790000000000070e-01 3.074709999999999943e-01 -2.162709999999999910e-01 3.668469999999999787e-01 5.743610000000000104e-01 5.078110000000000124e-01 4.590199999999999836e-02 -2.663019999999999832e-01 -1.997760000000000091e-01 -2.549420000000000019e-01 -2.872170000000000001e-01 1.941589999999999983e-01 1.222779999999999978e-01 3.432299999999999796e-01 1.206779999999999936e-01 2.735770000000000146e-01 -2.593170000000000197e-01 7.003270000000000328e-01 -1.522620000000000084e-01 4.398380000000000067e-01 1.896539999999999893e-01 -9.542499999999999594e-02 3.328999999999999737e-01 -2.950400000000000245e-01 2.376209999999999989e-01 9.069000000000000672e-03 -2.489619999999999889e-01 2.580199999999999855e-02 -1.481429999999999969e-01 -5.189599999999999769e-01 -2.307879999999999932e-01 1.987410000000000010e-01 -3.964100000000000262e-02 7.005300000000000415e-02 4.534200000000000036e-02 -1.007249999999999951e-01 -1.552630000000000121e-01 -4.634960000000000191e-01 1.991000000000000061e-02 2.168080000000000007e-01 3.633830000000000116e-01 4.057299999999999796e-02 3.519709999999999783e-01 2.178519999999999901e-01 7.487000000000000322e-01
2.101989999999999970e-01 2.447610000000000063e-01 4.242630000000000012e-01 -1.836089999999999944e-01 -4.323750000000000093e-01 5.191540000000000044e-01 -2.504230000000000067e-01 1.316829999999999945e-01 7.393319999999999892e-01 -5.210449999999999804e-01 -1.261680000000000024e-01 1.483599999999999919e-01 -3.804409999999999736e-01 2.470130000000000103e-01 8.378000000000000030e-03 6.063299999999999940e-02 -6.169299999999999784e-01 -4.689030000000000142e-01 8.306090000000000417e-01 7.026980000000000448e-01 5.599309999999999565e-01 2.460430000000000117e-01 -2.211220000000000130e-01 -1.458280000000000132e-01 4.109399999999999858e-02 -7.642579999999999929e-01 -1.473949999999999982e-01 -3.425799999999999679e-02 2.230179999999999940e-01 5.712629999999999653e-01 -5.120040000000000147e-01 1.588809999999999945e-01 1.601699999999999999e-02 -6.881900000000000517e-02 -2.017309999999999937e-01 6.931819999999999649e-01 -2.000679999999999958e-01 1.427750000000000130e-01 3.356620000000000159e-01 3.227399999999999713e-02 4.742600000000000288e-02 -7.186559999999999615e-01 7.495570000000000288e-01 8.675900000000000278e-02 -4.701179999999999803e-01 8.429100000000000481e-02 1.402599999999999958e-01 1.008819999999999995e-01 -6.054500000000000159e-02 8.292599999999999971e-02 -9.616989999999999705e-01 1.095669999999999977e-01 -8.193100000000000382e-02 -5.468020000000000103e-01 3.431870000000000198e-01 1.923759999999999915e-01 -4.495689999999999964e-01 4.470199999999999868e-02 -2.503899999999999876e-02 5.883450000000000069e-01 -7.563640000000000363e-01 -6.792669999999999542e-01 -4.352829999999999755e-01 -1.817930000000000101e-01 -1.204579999999999956e-01 2.920470000000000010e-01 -1.341299999999999992e-01 2.731000000000000094e-01 -3.474189999999999778e-01 3.716200000000000059e-02 -6.498299999999999910e-02 6.051130000000000120e-01 -7.517300000000000371e-02 4.576189999999999980e-01 7.850899999999999546e-02 -1.794899999999999968e-02 3.096929999999999961e-01 -4.646489999999999787e-01 4.127549999999999830e-01 5.907930000000000126e-01 -3.679410000000000180e-01 2.296660000000000090e-01 -7.853609999999999758e-01 1.612200000000000022e-01 4.842899999999999983e-02 1.722839999999999927e-01 -6.407969999999999500e-01 -1.035480000000000012e-01 -8.444300000000000417e-02 3.234000000000000208e-01
5.586900000000000199e-02 -3.841120000000000090e-01 3.020619999999999972e-01 -1.180889999999999995e-01 -1.932939999999999936e-01 1.205600000000000074e-02 6.217799999999999716e-02 -1.577759999999999996e-01 -3.470860000000000056e-01 8.718099999999999461e-02 -8.907490000000000130e-01 -1.216800000000000000e-02 -5.170479999999999521e-01 -6.067059999999999675e-01 -1.965099999999999833e-02 1.636039999999999994e-01 1.833100000000000007e-02 3.420819999999999972e-01 1.992790000000000117e-01 -1.026750000000000024e-01 -2.859979999999999745e-01 -2.352039999999999964e-01 8.916140000000000176e-01 -5.190700000000000175e-02 2.748419999999999752e-01 -3.962000000000000244e-02 3.641599999999999837e-01 4.744260000000000144e-01 5.454609999999999737e-01 -2.750330000000000275e-01 -3.212400000000000255e-01 -4.192980000000000040e-01 6.179999999999999730e-03 2.057000000000000148e-02 1.889349999999999918e-01 1.335030000000000105e-01 -7.812199999999999700e-02 5.041649999999999743e-01 -5.759290000000000243e-01 5.527200000000000168e-02 -1.483639999999999959e-01 -2.998560000000000114e-01 1.445259999999999878e-01 4.658619999999999983e-01 -5.754780000000000451e-01 -1.323030000000000039e-01 5.578659999999999730e-01 5.728079999999999838e-01 9.776999999999999233e-03 3.915250000000000119e-01 2.032539999999999902e-01 1.529210000000000014e-01 -2.104360000000000119e-01 1.518780000000000130e-01 4.750079999999999858e-01 8.643900000000000194e-02 4.198779999999999735e-01 -2.474540000000000073e-01 4.627359999999999807e-01 4.724800000000000111e-01 -6.417899999999999994e-02 -4.118490000000000206e-01 1.899810000000000110e-01 1.618860000000000021e-01 -1.552699999999999914e-01 1.276440000000000075e-01 -9.712400000000000200e-02 5.417560000000000153e-01 -4.827429999999999777e-01 5.382800000000000085e-02 -3.045419999999999794e-01 -4.367119999999999891e-01 -5.882500000000000506e-01 8.803199999999999914e-02 2.135420000000000096e-01 -2.569080000000000252e-01 -6.163800000000000390e-01 -4.442459999999999742e-01 1.678369999999999862e-01 3.116349999999999953e-01 -9.407999999999999696e-02 5.026300000000000212e-02 -2.073810000000000098e-01 2.176009999999999889e-01 8.861099999999999532e-02 -1.413550000000000084e-01 7.227919999999999900e-01 -4.195700000000000124e-02 -6.454999999999999627e-02 -5.510129999999999750e-01
-2.224659999999999971e-01 1.762710000000000110e-01 3.675069999999999726e-01 -1.852489999999999970e-01 -3.296640000000000126e-01 -1.686396000000000006e+00 -4.669800000000000062e-01 2.987799999999999900e-01 8.789540000000000131e-01 2.876489999999999880e-01 1.307470000000000021e-01 1.059044000000000096e+00 9.022480000000000500e-01 2.843060000000000032e-01 -3.433959999999999790e-01 1.063209000000000071e+00 -7.520339999999999803e-01 4.961949999999999972e-01 -2.998400000000000024e-02 1.064709999999999962e-01 1.412029999999999952e-01 -6.586100000000000287e-02 2.018969999999999931e-01 2.822060000000000124e-01 -1.670949999999999935e-01 -1.317361000000000004e+00 -7.134930000000000438e-01 5.204980000000000162e-01 3.784139999999999726e-01 -8.886570000000000302e-01 -5.174769999999999648e-01 1.190650000000000042e-01 2.515490000000000226e-01 2.840300000000000047e-01 -2.332289999999999919e-01 -7.491039999999999921e-01 6.769500000000000517e-02 7.428999999999999493e-02 -6.249209999999999487e-01 5.860499999999999737e-02 2.782189999999999941e-01 1.261744999999999894e+00 -2.219339999999999924e-01 2.304499999999999882e-01 -5.236110000000000486e-01 7.938619999999999566e-01 -4.250559999999999894e-01 -8.114999999999999991e-02 2.742890000000000050e-01 -6.457969999999999544e-01 4.380249999999999977e-01 -1.379000000000000017e-03 1.869359999999999911e-01 2.634119999999999795e-01 -1.011136999999999952e+00 -4.579050000000000065e-01 3.630950000000000011e-01 -7.888009999999999744e-01 -1.482549999999999979e-01 -4.880780000000000118e-01 -3.655900000000000261e-01 9.353200000000000403e-02 -2.055389999999999995e-01 1.391709999999999892e-01 -3.929710000000000147e-01 -5.774040000000000283e-01 -2.514270000000000116e-01 1.123689999999999967e-01 -5.174830000000000263e-01 -3.666159999999999974e-01 6.791939999999999644e-01 -5.497720000000000384e-01 -2.294239999999999891e-01 -4.682799999999999740e-01 -1.402259999999999895e-01 1.199449999999999961e-01 1.407483999999999957e+00 1.547384000000000093e+00 4.900410000000000044e-01 4.852900000000000269e-02 -1.170900000000000066e-02 -2.488319999999999976e-01 4.704349999999999921e-01 -7.060199999999999809e-02 1.492070000000000063e-01 5.550000000000000246e-03 -3.755999999999999790e-03 -1.020000000000000073e-02 -1.123859999999999998e-01 8.249760000000000426e-01
-2.494299999999999989e-02 -7.938730000000000508e-01 2.108790000000000109e-01 3.242269999999999874e-01 2.290000000000000091e-01 -8.089549999999999796e-01 1.152994000000000074e+00 1.784489999999999965e-01 1.321401999999999965e+00 -6.024509999999999588e-01 1.402960999999999903e+00 1.351145000000000040e+00 2.900119999999999920e-01 -1.257204999999999906e+00 5.847820000000000240e-01 7.232349999999999612e-01 -7.941939999999999555e-01 -3.605200000000000071e-02 2.638579999999999814e-01 -2.027780000000000138e-01 1.767890000000000017e-01 -5.273900000000000254e-01 -5.172870000000000523e-01 9.196689999999999587e-01 -6.313170000000000170e-01 2.616780000000000217e-01 -4.749530000000000141e-01 3.601000000000000034e-03 1.970179999999999987e-01 -3.375800000000000328e-02 -3.893119999999999914e-01 -5.251909999999999634e-01 -1.450501000000000040e+00 -1.931300000000000031e-02 3.794859999999999900e-01 3.107400000000000162e-01 -1.518130000000000035e-01 -8.479999999999999760e-01 -8.860400000000000220e-02 6.426400000000000168e-02 9.844840000000000257e-01 1.779979999999999896e-01 6.632179999999999742e-01 -1.148954000000000031e+00 -1.100502000000000091e+00 -1.181542000000000092e+00 -6.222919999999999563e-01 -2.189300000000000135e-01 -4.117600000000000149e-01 5.044400000000000273e-02 8.766300000000000481e-02 1.821049999999999891e-01 4.976200000000000068e-01 1.843259999999999899e+00 -2.732200000000000184e-01 3.334440000000000182e-01 -3.354200000000000237e-02 -7.833179999999999588e-01 6.662390000000000256e-01 1.790370000000000017e-01 -3.053609999999999935e-01 8.822640000000000482e-01 1.343729999999999924e-01 8.513920000000000377e-01 -7.895180000000000531e-01 -2.121929999999999927e-01 1.026310000000000000e-01 2.211690000000000045e-01 -1.494910000000000128e-01 -9.176900000000000335e-02 1.021970000000000045e+00 -1.913936000000000082e+00 5.195380000000000553e-01 -7.688399999999999401e-02 2.881400000000000072e-01 -3.057299999999999948e-02 -3.790270000000000028e-01 2.692689999999999806e-01 3.786260000000000181e-01 1.943400000000000127e-01 -1.663989999999999914e-01 5.217399999999999816e-02 -1.734880000000000033e-01 -1.008010000000000017e-01 5.742900000000000088e-02 -9.690000000000000002e-02 -4.730630000000000113e-01 -2.052229999999999888e-01 7.250229999999999730e-01 -5.934660000000000490e-01
2.333929999999999894e-01 -3.536850000000000271e-01 2.680939999999999990e-01 3.486639999999999739e-01 -3.500719999999999943e-01 5.488490000000000313e-01 2.793649999999999745e-01 3.806479999999999864e-01 1.297023000000000037e+00 -6.267850000000000366e-01 1.993620000000000114e-01 5.694599999999999662e-01 3.662409999999999832e-01 2.984399999999999900e-02 3.940270000000000161e-01 -2.716500000000000165e-02 -8.813200000000000200e-02 8.268170000000000242e-01 -3.909619999999999762e-01 -1.081958999999999893e+00 -4.951679999999999970e-01 -1.454640000000000100e-01 1.331000000000000065e-02 2.608159999999999923e-01 2.466220000000000079e-01 -1.837899999999999950e-02 -2.919329999999999981e-01 -9.685199999999999365e-02 -7.036860000000000337e-01 6.801190000000000291e-01 -3.519209999999999838e-01 2.604509999999999881e-01 1.180780000000000024e-01 -1.935340000000000116e-01 -2.862460000000000004e-01 -2.084610000000000074e-01 -2.681290000000000062e-01 8.799899999999999389e-02 2.704269999999999730e-01 2.019420000000000104e-01 6.263199999999999323e-02 -8.788660000000000361e-01 6.255299999999999749e-02 -6.044979999999999798e-01 -7.652029999999999665e-01 2.855150000000000188e-01 1.288729999999999876e-01 -3.258829999999999782e-01 4.912889999999999757e-01 4.949489999999999723e-01 -2.110150000000000081e-01 -2.952679999999999749e-01 2.253209999999999935e-01 -4.766250000000000209e-01 -5.267880000000000340e-01 -3.681889999999999885e-01 2.761159999999999726e-01 -2.578599999999999989e-02 5.860060000000000269e-01 -8.035399999999999487e-02 -2.044459999999999888e-01 3.847360000000000224e-01 9.683200000000000141e-02 3.613500000000000045e-02 1.092840000000000061e-01 5.934099999999999792e-02 -5.019000000000000024e-03 -7.011399999999999577e-02 -3.890460000000000029e-01 -1.978200000000000097e-02 1.062049999999999939e-01 -1.541164999999999896e+00 5.026100000000000012e-02 7.584220000000000406e-01 -5.148380000000000178e-01 -3.731079999999999952e-01 -8.020199999999999552e-02 1.268050000000000010e-01 3.019100000000000117e-01 -8.264199999999999324e-02 -2.905599999999999850e-01 -2.550529999999999742e-01 -3.096820000000000128e-01 4.690819999999999990e-01 4.898910000000000209e-01 1.957730000000000026e-01 2.270250000000000046e-01 4.122830000000000106e-01 3.736680000000000001e-01 -1.979300000000000156e-02
-3.964399999999999868e-02 1.016419999999999962e-01 -3.727030000000000065e-01 1.355300000000000081e-02 4.401209999999999845e-01 -2.965070000000000205e-01 3.078890000000000238e-01 1.674950000000000050e-01 -1.906589999999999951e-01 7.769900000000000417e-02 -5.701490000000000169e-01 -2.858300000000000077e-02 -3.231999999999999873e-01 1.281130000000000047e-01 -1.474329999999999918e+00 1.899379999999999957e-01 3.980100000000000304e-02 4.593260000000000121e-01 4.804499999999999743e-02 -2.238620000000000054e-01 1.773419999999999996e-01 1.598090000000000066e-01 -3.564829999999999943e-01 1.166900000000000021e-01 -2.858789999999999942e-01 2.129099999999999882e-01 -7.738359999999999683e-01 -1.485070000000000001e-01 1.962210000000000065e-01 -7.283260000000000289e-01 3.701789999999999803e-01 1.714370000000000061e-01 2.369340000000000057e-01 7.566299999999999415e-02 2.792930000000000135e-01 4.078539999999999943e-01 1.126069999999999988e-01 -6.686000000000000103e-03 3.510969999999999924e-01 3.403300000000000075e-02 -1.808859999999999912e-01 -6.960000000000000041e-04 -1.428570000000000118e-01 6.167999999999999872e-03 1.187669999999999976e-01 -2.217679999999999929e-01 5.203229999999999800e-01 1.120499999999999968e-01 -1.785499999999999934e-02 -2.706000000000000072e-02 3.796530000000000182e-01 -6.268300000000000261e-02 -5.729779999999999873e-01 -9.910499999999999865e-02 -7.186900000000000233e-02 -3.655999999999999962e-03 1.215551000000000048e+00 -1.222239999999999993e-01 -1.532350000000000101e-01 -1.477239999999999942e-01 1.300290000000000057e-01 2.334110000000000074e-01 -8.574800000000000477e-02 -4.318899999999999822e-02 3.197240000000000082e-01 -8.702200000000000213e-02 4.306200000000000028e-01 6.360789999999999500e-01 -1.467519999999999936e-01 -3.566119999999999846e-01 -7.384730000000000461e-01 -3.173050000000000037e-01 4.993710000000000093e-01 5.216560000000000086e-01 7.894060000000000521e-01 -2.934950000000000059e-01 -3.475119999999999876e-01 2.241209999999999869e-01 -4.235909999999999953e-01 -1.170650000000000024e-01 -4.934549999999999770e-01 -1.042270000000000002e-01 -9.995999999999999330e-02 -4.211399999999999866e-02 7.588699999999999612e-02 -1.071180000000000049e-01 6.359569999999999945e-01 1.322780000000000067e-01 -4.692729999999999957e-01 6.011799999999999783e-02
-4.958949999999999747e-01 -2.060780000000000112e-01 -1.180387000000000075e+00 -4.082080000000000153e-01 -4.275240000000000151e-01 -1.058110000000000023e-01 4.367489999999999983e-01 2.122610000000000052e-01 2.442620000000000069e-01 3.812570000000000126e-01 -7.575300000000000089e-02 3.677199999999999913e-01 3.920049999999999923e-01 1.252350000000000130e-01 2.490400000000000114e-01 1.689130000000000076e-01 -1.083240000000000036e-01 -5.104560000000000208e-01 5.874800000000000161e-02 2.646160000000000179e-01 5.269810000000000327e-01 2.344650000000000067e-01 -3.231180000000000163e-01 4.556629999999999847e-01 -2.033369999999999900e-01 -5.449910000000000032e-01 4.369819999999999816e-01 -4.141569999999999974e-01 4.005040000000000266e-01 -8.931529999999999747e-01 -3.692190000000000194e-01 5.502270000000000216e-01 1.490900000000000003e-01 1.572099999999999886e-01 -7.160990000000000411e-01 -1.603779999999999928e-01 6.026070000000000038e-01 3.043690000000000007e-01 5.528100000000000236e-01 1.884869999999999879e-01 2.044599999999999890e-02 -5.471899999999999542e-01 -4.948100000000000276e-01 1.111459999999999948e-01 -2.125700000000000159e-02 -3.217300000000000160e-01 -1.562500000000000000e-02 -2.757299999999999751e-01 1.642599999999999963e-02 3.241820000000000257e-01 -1.600100000000000133e-02 8.090100000000000069e-02 -2.224740000000000051e-01 9.470490000000000297e-01 -5.915700000000000403e-01 -1.915299999999999989e-02 -3.638730000000000020e-01 7.095799999999999330e-02 1.380419999999999980e-01 5.174100000000000227e-02 -6.586300000000000487e-02 9.535200000000000620e-02 -7.143369999999999997e-01 -1.474560000000000037e-01 -3.746399999999999730e-02 -3.694769999999999999e-01 -1.429140000000000132e-01 -1.215539999999999954e-01 -2.948699999999999932e-02 1.007009999999999988e-01 -1.679070000000000007e-01 3.653680000000000261e-01 -2.671999999999999896e-03 -5.175300000000000455e-01 -7.232119999999999660e-01 1.262709999999999944e-01 6.573689999999999811e-01 6.109369999999999523e-01 3.129750000000000032e-01 -7.957799999999999596e-02 2.348050000000000137e-01 1.304790000000000116e-01 5.441049999999999498e-01 9.535489999999999799e-01 6.249500000000000194e-02 1.929499999999999965e-02 -2.896650000000000058e-01 1.361819999999999975e-01 -1.839770000000000016e-01 5.441700000000000009e-02
-1.462300000000000058e-02 1.598849999999999993e-01 2.453450000000000075e-01 4.071420000000000039e-01 -8.456900000000000528e-02 1.009689000000000059e+00 -1.743929999999999925e-01 -2.479540000000000077e-01 6.248679999999999790e-01 -2.683299999999999921e-02 6.144789999999999974e-01 -6.177610000000000046e-01 1.518809999999999882e-01 6.182109999999999550e-01 -3.471000000000000196e-01 9.323900000000000243e-02 -3.754040000000000155e-01 2.339370000000000061e-01 -1.614450000000000052e-01 -3.238050000000000095e-01 -1.583999999999999905e-03 -3.580160000000000009e-01 -4.655719999999999859e-01 -6.979440000000000088e-01 -7.127999999999999614e-02 7.113450000000000051e-01 2.616629999999999789e-01 -1.899520000000000097e-01 -1.229675000000000074e+00 -3.351200000000000012e-02 -2.128990000000000049e-01 -7.516799999999999871e-02 -5.913500000000000006e-02 1.448810000000000098e-01 5.673999999999999877e-02 1.840899999999999828e-02 -2.333299999999999957e-02 -1.515269999999999950e-01 -1.050709999999999977e-01 -4.093209999999999904e-01 1.971829999999999972e-01 -5.597109999999999586e-01 -1.846559999999999868e-01 -5.361329999999999707e-01 2.018139999999999934e-01 4.898339999999999916e-01 -6.230000000000000294e-03 -3.802139999999999964e-01 4.158109999999999862e-01 4.699860000000000149e-01 1.290189999999999948e-01 -9.821900000000000075e-02 -2.890269999999999784e-01 -3.833690000000000153e-01 -5.245790000000000175e-01 -8.788899999999999491e-02 4.454999999999999759e-03 2.552719999999999989e-01 -2.480030000000000012e-01 -1.915380000000000138e-01 2.535459999999999936e-01 -1.435859999999999914e-01 7.159360000000000168e-01 -1.687950000000000006e-01 3.845509999999999762e-01 2.243709999999999871e-01 -4.191700000000000287e-02 1.410270000000000135e-01 1.876369999999999982e-01 1.074070000000000025e-01 1.721280000000000032e-01 -5.785900000000000071e-02 1.495319999999999983e-01 -2.328260000000000052e-01 -5.649589999999999890e-01 -8.645700000000000607e-02 6.567150000000000487e-01 -7.829099999999999948e-02 -1.357849999999999890e-01 1.317470000000000030e-01 -2.947200000000000167e-02 -2.252919999999999923e-01 -4.564409999999999856e-01 6.432699999999999529e-02 1.685399999999999954e-01 4.020420000000000105e-01 -4.929490000000000260e-01 4.707120000000000193e-01 2.377710000000000101e-01 6.790009999999999657e-01
-1.131799999999999994e-02 1.078979999999999939e-01 6.524720000000000519e-01 1.161699999999999955e-01 -4.587490000000000179e-01 1.231190000000000062e-01 2.901610000000000023e-01 1.399279999999999968e-01 -1.922359999999999902e-01 4.355209999999999915e-01 -2.165529999999999955e-01 -3.762570000000000081e-01 -3.454119999999999968e-01 6.065000000000000252e-02 -3.131599999999999939e-01 -8.410700000000000121e-02 7.351399999999999602e-02 2.099689999999999890e-01 -1.218879999999999963e-01 8.891759999999999664e-01 -5.901189999999999491e-01 2.729639999999999844e-01 4.229200000000000181e-01 -2.498120000000000063e-01 -1.130069999999999963e-01 -1.411840000000000039e-01 -4.426769999999999872e-01 5.480899999999999661e-01 7.855560000000000320e-01 2.553679999999999839e-01 2.241289999999999949e-01 2.510899999999999938e-02 2.324259999999999937e-01 7.667300000000000504e-02 -3.998570000000000180e-01 7.795590000000000019e-01 -4.722599999999999715e-02 1.952740000000000031e-01 -3.693290000000000184e-01 -1.652309999999999890e-01 2.907589999999999897e-01 5.551799999999999791e-02 -5.295189999999999619e-01 4.926170000000000271e-01 3.739700000000000246e-01 -3.774000000000000271e-02 -2.982960000000000056e-01 5.452949999999999742e-01 -2.735210000000000141e-01 8.824200000000000099e-02 -1.156630000000000019e-01 1.428010000000000113e-01 -3.588410000000000211e-01 -3.804589999999999916e-01 8.092460000000000209e-01 5.932460000000000511e-01 1.858839999999999937e-01 -3.565180000000000016e-01 -4.965220000000000189e-01 7.443500000000000116e-02 1.301930000000000032e-01 -5.989489999999999537e-01 7.583210000000000228e-01 -6.547899999999999554e-02 -4.773299999999999765e-02 -1.411159999999999914e-01 -1.332520000000000093e-01 -6.418799999999999506e-02 -3.515719999999999956e-01 -1.299900000000000014e-02 -2.150769999999999904e-01 -4.093899999999999761e-01 -6.801019999999999843e-01 6.845099999999999796e-02 3.646179999999999977e-01 -1.150589999999999946e-01 -4.913399999999999990e-01 -2.944720000000000115e-01 -2.668200000000000086e-02 3.827769999999999784e-01 -6.895120000000000138e-01 -9.632000000000000284e-02 8.213199999999999668e-02 -7.782100000000000128e-02 2.293999999999999859e-02 -1.725839999999999874e-01 -1.167249999999999954e-01 1.464920000000000111e-01 -7.383760000000000323e-01 4.993639999999999746e-01
-3.037500000000000200e-01 3.113580000000000236e-01 6.973719999999999919e-01 1.458699999999999927e-02 2.310740000000000016e-01 -3.777860000000000107e-01 1.159479999999999955e-01 1.143610000000000043e-01 1.099999999999999936e-02 3.101559999999999873e-01 -1.323850000000000027e-01 -5.986810000000000187e-01 6.900299999999999490e-02 -7.658409999999999940e-01 -7.060389999999999722e-01 1.108669999999999933e-01 1.705710000000000004e-01 -3.460200000000000081e-02 -4.258580000000000143e-01 -1.755049999999999943e-01 -3.310779999999999834e-01 4.154249999999999887e-01 3.112130000000000174e-01 4.260099999999999998e-02 2.255290000000000072e-01 -3.770970000000000155e-01 -5.723620000000000374e-01 -2.295149999999999968e-01 5.639420000000000543e-01 2.021799999999999986e-01 -2.339799999999999866e-02 -7.196500000000000119e-02 1.094890000000000030e-01 2.763660000000000005e-01 -2.286200000000000038e-02 2.722010000000000263e-01 7.344000000000000528e-02 -7.893300000000000316e-02 -2.229230000000000100e-01 1.809890000000000110e-01 -2.098919999999999952e-01 7.820369999999999822e-01 -1.760430000000000050e-01 -2.866879999999999984e-01 -2.177489999999999981e-01 -2.357350000000000001e-01 1.645320000000000116e-01 -2.379000000000000004e-01 5.808550000000000102e-01 -1.559969999999999968e-01 -3.661050000000000137e-01 -1.325800000000000034e-01 2.498600000000000126e-02 -9.014400000000000190e-02 1.238350000000000006e-01 7.341299999999999493e-01 3.713750000000000107e-01 -3.227380000000000249e-01 -3.711900000000000199e-01 1.551119999999999999e-01 -5.005799999999999833e-02 -2.655350000000000210e-01 -1.127060000000000006e-01 -4.873099999999999654e-02 1.604200000000000070e-01 -2.902080000000000215e-01 -5.929849999999999843e-01 4.337369999999999837e-01 7.896680000000000366e-01 3.004789999999999961e-01 -2.402859999999999996e-01 4.823669999999999902e-01 7.230399999999999328e-02 2.656549999999999745e-01 8.468400000000000372e-01 -9.127799999999999803e-02 -4.195740000000000025e-01 6.190299999999999969e-02 -1.336340000000000028e-01 2.678200000000000025e-02 -1.303759999999999919e-01 -4.615900000000000003e-01 -2.800899999999999918e-02 -2.510089999999999821e-01 3.931990000000000207e-01 5.072410000000000529e-01 -4.579820000000000002e-01 -3.508599999999999913e-02 -4.182429999999999759e-01 1.735049999999999926e-01
-4.004579999999999806e-01 1.160729999999999956e-01 -3.939999999999999817e-04 8.052000000000000129e-03 -4.872969999999999802e-01 -2.211650000000000005e-01 1.504679999999999906e-01 4.868359999999999910e-01 -2.157840000000000036e-01 6.070899999999999908e-02 3.157719999999999971e-01 -4.006839999999999846e-01 5.888339999999999685e-01 -4.224609999999999754e-01 4.957700000000000301e-02 -3.022599999999999731e-01 3.114160000000000261e-01 1.163567000000000018e+00 -9.840100000000000235e-02 -3.578400000000000331e-02 4.767279999999999851e-01 -6.146749999999999714e-01 6.664179999999999549e-01 3.593080000000000163e-01 5.774300000000000266e-02 -7.711900000000000421e-01 -2.770710000000000117e-01 -5.271770000000000067e-01 9.789900000000000269e-01 -1.097391000000000005e+00 -1.157289999999999985e-01 -6.082840000000000469e-01 -8.124000000000000665e-02 -5.626649999999999707e-01 5.027690000000000214e-01 9.413599999999999746e-02 3.651309999999999834e-01 6.590600000000000624e-02 -1.496309999999999862e-01 1.363649999999999862e-01 1.215770000000000045e-01 4.367579999999999796e-01 -2.032079999999999997e-01 -1.103419999999999956e-01 -1.618850000000000011e-01 1.875900000000000137e-02 -6.432520000000000460e-01 5.365900000000000114e-01 -1.781119999999999925e-01 3.171050000000000257e-01 -7.385500000000000398e-02 4.456199999999999745e-02 1.962579999999999880e-01 -1.616300000000000028e-02 -3.681590000000000140e-01 5.558859999999999912e-01 -1.923320000000000030e-01 6.254000000000000010e-03 -4.620360000000000023e-01 1.047150000000000025e-01 -4.458399999999999863e-02 -7.209160000000000013e-01 -5.937160000000000215e-01 6.440200000000000369e-01 1.239429999999999976e-01 -6.918370000000000353e-01 -5.792400000000000326e-02 -4.034700000000000092e-02 -5.475010000000000154e-01 -1.645860000000000101e-01 -4.899900000000000089e-02 -7.726730000000000542e-01 6.024610000000000243e-01 -4.056919999999999971e-01 6.006489999999999885e-01 2.582100000000000020e-02 2.522730000000000250e-01 1.121049999999999963e-01 4.103109999999999813e-01 -1.629980000000000040e-01 5.233170000000000321e-01 5.469749999999999890e-01 -1.851099999999999968e-02 -2.809999999999999998e-02 5.054199999999999665e-02 -4.151449999999999863e-01 7.461259999999999559e-01 -7.906599999999999739e-02 3.420320000000000027e-01 3.178449999999999886e-01
-7.721500000000000030e-01 -5.182430000000000092e-01 -7.181450000000000333e-01 3.548629999999999840e-01 -1.606529999999999903e-01 -2.138639999999999985e-01 -3.376870000000000149e-01 6.007249999999999535e-01 3.433959999999999790e-01 3.701700000000000129e-02 2.358329999999999871e-01 8.788620000000000321e-01 2.017809999999999881e-01 6.523480000000000389e-01 8.558099999999999596e-01 -6.572740000000000249e-01 3.862899999999999667e-02 1.759400000000000130e-01 4.650599999999999873e-02 -2.076210000000000000e-01 -7.035799999999999832e-01 -1.033099999999999991e-02 4.142529999999999824e-01 -2.986670000000000158e-01 1.601517000000000079e+00 2.431079999999999908e-01 -2.785869999999999735e-01 -2.440839999999999954e-01 -1.455740000000000089e-01 1.470158999999999994e+00 7.374399999999999844e-01 3.205000000000000210e-02 7.550099999999999867e-02 4.431970000000000076e-01 1.742569999999999952e-01 -3.029029999999999778e-01 9.953060000000000240e-01 1.207545000000000091e+00 4.361820000000000142e-01 -7.137820000000000276e-01 -3.331740000000000257e-01 -4.358000000000000068e-02 -1.880950000000000122e-01 -4.169129999999999781e-01 -6.044389999999999485e-01 6.175559999999999938e-01 1.454400000000000137e-01 -9.975680000000000103e-01 -3.574530000000000207e-01 -8.726499999999999535e-02 6.622230000000000061e-01 2.057140000000000080e-01 1.432410000000000072e-01 5.133210000000000273e-01 1.029820000000000041e-01 -8.305519999999999570e-01 -6.291750000000000398e-01 6.862909999999999844e-01 6.232490000000000530e-01 3.392870000000000053e-01 1.973020000000000052e-01 -1.984470000000000123e-01 5.584219999999999740e-01 -1.575189999999999924e-01 5.637600000000000250e-02 2.048059999999999881e-01 -3.830970000000000208e-01 -1.882020000000000082e-01 -4.114900000000000224e-01 -9.384199999999999486e-02 -8.877469999999999528e-01 6.404400000000000370e-02 -1.250720999999999972e+00 3.888849999999999807e-01 5.698550000000000004e-01 1.458109999999999962e-01 -2.624330000000000274e-01 -1.594074999999999909e+00 -9.229749999999999899e-01 -3.701999999999999735e-02 -1.225009999999999988e-01 1.136250000000000038e-01 -4.075429999999999886e-01 -2.903149999999999897e-01 2.086400000000000060e-02 -1.323960000000000137e-01 5.129100000000000326e-02 -4.187620000000000231e-01 -1.421540000000000026e-01 9.789000000000000826e-03