9.079999999999999530e-03 2.276920000000000055e+00 1.619790000000000063e+00 -1.968190000000000106e+00 5.701520000000000366e+00 1.619790000000000063e+00 3.963309999999999889e+00 2.276920000000000055e+00 1.619790000000000063e+00 1.986040000000000028e+00 5.701520000000000366e+00 1.619790000000000063e+00 7.905020000000000380e+00 3.550000000000000204e-03 5.929079999999999906e+00 5.927749999999999631e+00 3.428139999999999965e+00 5.929079999999999906e+00 3.950790000000000024e+00 3.550000000000000204e-03 5.929079999999999906e+00 1.973519999999999941e+00 3.428139999999999965e+00 5.929079999999999906e+00 1.982369999999999965e+00 1.141229999999999967e+00 2.630700000000000260e-01 5.100000000000000366e-03 4.565820000000000434e+00 2.630700000000000260e-01 5.936600000000000321e+00 1.141229999999999967e+00 2.630700000000000260e-01 3.959330000000000016e+00 4.565820000000000434e+00 2.630700000000000260e-01 -1.068999999999999985e-02 2.289190000000000058e+00 4.199580000000000091e+00 -1.987959999999999949e+00 5.713779999999999859e+00 4.199580000000000091e+00 3.943540000000000045e+00 2.289190000000000058e+00 4.199580000000000091e+00 1.966269999999999962e+00 5.713779999999999859e+00 4.199580000000000091e+00 1.976620000000000044e+00 1.138260000000000050e+00 7.367849999999999788e+00 -6.499999999999999702e-04 4.562850000000000072e+00 7.367849999999999788e+00 5.930850000000000399e+00 1.138260000000000050e+00 7.367849999999999788e+00 3.953580000000000094e+00 4.562850000000000072e+00 7.367849999999999788e+00
1.175000000000000003e-02 2.272349999999999870e+00 1.614370000000000083e+00 -1.969549999999999912e+00 5.704640000000000377e+00 1.622260000000000035e+00 3.963760000000000172e+00 2.277379999999999960e+00 1.616770000000000040e+00 1.979430000000000023e+00 5.702560000000000073e+00 1.619240000000000013e+00 7.906939999999999635e+00 1.229999999999999974e-03 5.930769999999999875e+00 -1.976220000000000088e+00 3.424350000000000005e+00 5.929619999999999891e+00 3.950860000000000039e+00 9.600000000000000243e-04 5.925099999999999589e+00 1.974089999999999900e+00 3.431470000000000020e+00 5.933460000000000178e+00 1.979610000000000092e+00 1.144370000000000109e+00 2.592099999999999960e-01 6.009999999999999717e-03 4.565760000000000041e+00 2.666499999999999981e-01 5.940419999999999590e+00 1.147809999999999997e+00 2.590799999999999770e-01 3.961250000000000160e+00 4.571900000000000297e+00 2.698999999999999733e-01 -1.107999999999999957e-02 2.288850000000000051e+00 4.202539999999999942e+00 -1.985279999999999934e+00 5.715790000000000148e+00 4.202779999999999738e+00 3.947229999999999794e+00 2.286820000000000075e+00 4.201740000000000030e+00 1.960599999999999898e+00 5.707519999999999705e+00 4.198229999999999684e+00 1.970970000000000111e+00 1.139839999999999964e+00 7.367390000000000327e+00 6.999999999999999387e-05 4.561340000000000394e+00 7.366360000000000241e+00 5.929560000000000386e+00 1.137180000000000080e+00 7.365179999999999616e+00 3.952440000000000175e+00 4.562809999999999810e+00 7.368599999999999817e+00
1.440999999999999920e-02 2.267809999999999881e+00 1.609019999999999895e+00 -1.970920000000000005e+00 5.707770000000000010e+00 1.624770000000000048e+00 3.964199999999999946e+00 2.277839999999999865e+00 1.613790000000000058e+00 1.972809999999999953e+00 5.703619999999999912e+00 1.618730000000000002e+00 3.954309999999999992e+00 6.848099999999999632e+00 5.932540000000000369e+00 -1.971740000000000048e+00 3.420560000000000045e+00 5.930250000000000021e+00 -3.619999999999999954e-03 6.847559999999999647e+00 5.921230000000000437e+00 1.974650000000000016e+00 3.434769999999999879e+00 5.937929999999999708e+00 1.976869999999999905e+00 1.147489999999999899e+00 2.554500000000000104e-01 6.899999999999999883e-03 4.565699999999999648e+00 2.703099999999999947e-01 5.944230000000000125e+00 1.154369999999999896e+00 2.551800000000000179e-01 3.963159999999999794e+00 4.577969999999999651e+00 2.768100000000000005e-01 -1.145000000000000011e-02 2.288510000000000044e+00 4.205359999999999765e+00 -1.982590000000000074e+00 5.717789999999999928e+00 4.205860000000000376e+00 3.950930000000000053e+00 2.284460000000000157e+00 4.203789999999999694e+00 1.954960000000000031e+00 5.701260000000000439e+00 4.196769999999999889e+00 1.965330000000000021e+00 1.141429999999999945e+00 7.366740000000000066e+00 7.699999999999999597e-04 4.559849999999999959e+00 7.364700000000000024e+00 5.928259999999999863e+00 1.136100000000000110e+00 7.362330000000000041e+00 3.951309999999999878e+00 4.562770000000000437e+00 7.369180000000000064e+00
1.704999999999999918e-02 2.263290000000000024e+00 1.603769999999999918e+00 -1.972269999999999968e+00 5.710919999999999774e+00 1.627329999999999943e+00 3.964630000000000098e+00 2.278309999999999835e+00 1.610870000000000024e+00 1.966210000000000013e+00 5.704710000000000392e+00 1.618260000000000032e+00 -3.952259999999999884e+00 6.845780000000000420e+00 5.934400000000000119e+00 -1.967289999999999983e+00 3.416760000000000019e+00 5.930979999999999919e+00 -3.559999999999999797e-03 6.844990000000000130e+00 5.917460000000000164e+00 1.975219999999999976e+00 3.438039999999999985e+00 5.942470000000000141e+00 1.974189999999999889e+00 1.150570000000000093e+00 2.517699999999999938e-01 7.779999999999999589e-03 4.565629999999999633e+00 2.740400000000000058e-01 5.948010000000000019e+00 1.160860000000000003e+00 2.513799999999999923e-01 3.965059999999999807e+00 4.584010000000000140e+00 2.837899999999999867e-01 -1.179000000000000013e-02 2.288149999999999906e+00 4.208020000000000316e+00 -1.979910000000000059e+00 5.719769999999999577e+00 4.208829999999999849e+00 3.954629999999999868e+00 2.282099999999999795e+00 4.205689999999999706e+00 1.949349999999999916e+00 5.695020000000000415e+00 4.195210000000000328e+00 1.959729999999999972e+00 1.143010000000000081e+00 7.365929999999999644e+00 1.449999999999999900e-03 4.558379999999999654e+00 7.362890000000000157e+00 5.926949999999999719e+00 1.135019999999999918e+00 7.359320000000000306e+00 3.950210000000000221e+00 4.562730000000000175e+00 7.369580000000000020e+00
1.966999999999999998e-02 2.258809999999999985e+00 1.598649999999999904e+00 -1.973610000000000086e+00 5.714089999999999669e+00 1.629930000000000101e+00 3.965059999999999807e+00 2.278799999999999937e+00 1.608030000000000070e+00 1.959629999999999983e+00 5.705840000000000245e+00 1.617830000000000101e+00 -3.950390000000000068e+00 6.843460000000000321e+00 5.936329999999999885e+00 -1.962860000000000049e+00 3.412970000000000059e+00 5.931790000000000340e+00 -3.520000000000000125e-03 6.842430000000000234e+00 5.913809999999999789e+00 1.975800000000000001e+00 3.441269999999999829e+00 5.947079999999999700e+00 1.971580000000000110e+00 1.153610000000000024e+00 2.481800000000000117e-01 8.609999999999999598e-03 4.565570000000000128e+00 2.778200000000000114e-01 5.951749999999999652e+00 1.167280000000000095e+00 2.476700000000000013e-01 3.966930000000000067e+00 4.590019999999999989e+00 2.908299999999999774e-01 -1.210999999999999924e-02 2.287760000000000016e+00 4.210499999999999687e+00 -1.977249999999999952e+00 5.721739999999999604e+00 4.211669999999999803e+00 3.958320000000000061e+00 2.279760000000000009e+00 4.207440000000000069e+00 1.943789999999999907e+00 5.688810000000000144e+00 4.193550000000000111e+00 1.954190000000000094e+00 1.144589999999999996e+00 7.364939999999999820e+00 2.109999999999999896e-03 4.556969999999999743e+00 7.360940000000000261e+00 5.925620000000000331e+00 1.133930000000000105e+00 7.356160000000000032e+00 3.949129999999999807e+00 4.562700000000000422e+00 7.369799999999999685e+00
2.225999999999999854e-02 2.254379999999999828e+00 1.593709999999999960e+00 -1.974920000000000009e+00 5.717270000000000074e+00 1.632589999999999986e+00 3.965489999999999959e+00 2.279300000000000104e+00 1.605269999999999975e+00 1.953079999999999927e+00 5.707010000000000360e+00 1.617439999999999989e+00 -3.948550000000000004e+00 6.841149999999999842e+00 5.938320000000000043e+00 -1.958469999999999933e+00 3.409190000000000165e+00 5.932680000000000398e+00 -3.510000000000000099e-03 6.839900000000000091e+00 5.910280000000000200e+00 1.976380000000000026e+00 3.444440000000000168e+00 5.951740000000000030e+00 1.969070000000000098e+00 1.156579999999999941e+00 2.446500000000000064e-01 9.400000000000000369e-03 4.565520000000000245e+00 2.816500000000000115e-01 5.955420000000000158e+00 1.173610000000000042e+00 2.440499999999999892e-01 3.968770000000000131e+00 4.596000000000000085e+00 2.979200000000000181e-01 -1.238999999999999997e-02 2.287339999999999929e+00 4.212760000000000282e+00 -1.974609999999999976e+00 5.723690000000000389e+00 4.214369999999999727e+00 3.961990000000000123e+00 2.277429999999999843e+00 4.209010000000000140e+00 1.938299999999999912e+00 5.682620000000000005e+00 4.191790000000000127e+00 1.948720000000000008e+00 1.146160000000000068e+00 7.363789999999999836e+00 2.739999999999999814e-03 4.555600000000000094e+00 7.358859999999999957e+00 5.924280000000000435e+00 1.132819999999999938e+00 7.352850000000000108e+00 3.948109999999999786e+00 4.562660000000000160e+00 7.369849999999999568e+00
2.481999999999999831e-02 2.250020000000000131e+00 1.588950000000000085e+00 -1.976199999999999957e+00 5.720469999999999722e+00 1.635310000000000041e+00 3.965920000000000112e+00 2.279819999999999958e+00 1.602600000000000025e+00 1.946560000000000068e+00 5.708239999999999981e+00 1.617099999999999982e+00 -3.946750000000000203e+00 6.838849999999999874e+00 5.940369999999999706e+00 -1.954110000000000014e+00 3.405419999999999892e+00 5.933650000000000091e+00 -3.510000000000000099e-03 6.837410000000000210e+00 5.906869999999999621e+00 1.976969999999999894e+00 3.447550000000000114e+00 5.956450000000000244e+00 1.966669999999999918e+00 1.159470000000000001e+00 2.411899999999999877e-01 1.012000000000000052e-02 4.565470000000000361e+00 2.855099999999999860e-01 5.959010000000000140e+00 1.179820000000000091e+00 2.405200000000000116e-01 3.970559999999999867e+00 4.601939999999999920e+00 3.050499999999999878e-01 -1.263000000000000060e-02 2.286890000000000089e+00 4.214789999999999814e+00 -1.972010000000000041e+00 5.725620000000000154e+00 4.216940000000000133e+00 3.965640000000000054e+00 2.275129999999999875e+00 4.210410000000000430e+00 1.932870000000000088e+00 5.676470000000000127e+00 4.189919999999999867e+00 1.943349999999999911e+00 1.147710000000000008e+00 7.362479999999999691e+00 3.340000000000000087e-03 4.554299999999999571e+00 7.356679999999999886e+00 5.922920000000000407e+00 1.131690000000000085e+00 7.349409999999999776e+00 3.947140000000000093e+00 4.562610000000000277e+00 7.369740000000000180e+00
2.733999999999999972e-02 2.245719999999999938e+00 1.584410000000000096e+00 -1.977440000000000087e+00 5.723709999999999631e+00 1.638090000000000046e+00 3.966359999999999886e+00 2.280359999999999943e+00 1.600019999999999998e+00 1.940080000000000027e+00 5.709539999999999615e+00 1.616810000000000080e+00 -3.944990000000000219e+00 6.836570000000000036e+00 5.942470000000000141e+00 -1.949810000000000043e+00 3.401650000000000063e+00 5.934689999999999799e+00 -3.540000000000000178e-03 6.834950000000000081e+00 5.903579999999999828e+00 1.977579999999999893e+00 3.450569999999999915e+00 5.961199999999999832e+00 1.964409999999999989e+00 1.162279999999999980e+00 2.377900000000000014e-01 1.074999999999999914e-02 4.565450000000000230e+00 2.893899999999999806e-01 5.962500000000000355e+00 1.185899999999999954e+00 2.370599999999999929e-01 3.972290000000000099e+00 4.607829999999999870e+00 3.121999999999999775e-01 -1.281000000000000021e-02 2.286389999999999922e+00 4.216569999999999929e+00 -1.969440000000000079e+00 5.727529999999999788e+00 4.219369999999999621e+00 3.969269999999999854e+00 2.272860000000000102e+00 4.211599999999999788e+00 1.927519999999999900e+00 5.670359999999999623e+00 4.187960000000000349e+00 1.938090000000000090e+00 1.149229999999999974e+00 7.361010000000000275e+00 3.889999999999999795e-03 4.553060000000000329e+00 7.354400000000000048e+00 5.921529999999999738e+00 1.130530000000000035e+00 7.345830000000000304e+00 3.946239999999999970e+00 4.562560000000000393e+00 7.369460000000000122e+00
2.981999999999999929e-02 2.241499999999999826e+00 1.580119999999999969e+00 -1.978630000000000111e+00 5.726969999999999672e+00 1.640949999999999909e+00 3.966790000000000038e+00 2.280909999999999993e+00 1.597550000000000026e+00 1.933650000000000091e+00 5.710910000000000153e+00 1.616570000000000062e+00 -3.943270000000000053e+00 6.834290000000000198e+00 5.944609999999999950e+00 -1.945559999999999956e+00 3.397899999999999920e+00 5.935810000000000031e+00 -3.599999999999999901e-03 6.832550000000000345e+00 5.900420000000000442e+00 1.978199999999999958e+00 3.453510000000000080e+00 5.965980000000000061e+00 1.962320000000000064e+00 1.165000000000000036e+00 2.344299999999999995e-01 1.128999999999999969e-02 4.565439999999999721e+00 2.932799999999999851e-01 5.965889999999999915e+00 1.191840000000000011e+00 2.336799999999999988e-01 3.973949999999999871e+00 4.613679999999999559e+00 3.193900000000000072e-01 -1.294000000000000011e-02 2.285829999999999806e+00 4.218079999999999607e+00 -1.966920000000000002e+00 5.729400000000000048e+00 4.221650000000000347e+00 3.972879999999999967e+00 2.270610000000000017e+00 4.212589999999999613e+00 1.922260000000000080e+00 5.664299999999999891e+00 4.185900000000000176e+00 1.932949999999999946e+00 1.150740000000000096e+00 7.359399999999999942e+00 4.389999999999999805e-03 4.551910000000000345e+00 7.352039999999999687e+00 5.920110000000000205e+00 1.129320000000000102e+00 7.342139999999999667e+00 3.945429999999999993e+00 4.562490000000000379e+00 7.369030000000000413e+00
3.225999999999999701e-02 2.237350000000000172e+00 1.576089999999999991e+00 -1.979759999999999964e+00 5.730269999999999975e+00 1.643880000000000008e+00 3.967229999999999812e+00 2.281489999999999796e+00 1.595190000000000108e+00 1.927270000000000039e+00 5.712360000000000326e+00 1.616389999999999993e+00 -3.941609999999999836e+00 6.832029999999999603e+00 5.946780000000000399e+00 -1.941370000000000040e+00 3.394159999999999844e+00 5.936980000000000146e+00 -3.690000000000000138e-03 6.830189999999999984e+00 5.897380000000000067e+00 1.978849999999999998e+00 3.456350000000000033e+00 5.970780000000000420e+00 1.960399999999999920e+00 1.167620000000000102e+00 2.310999999999999999e-01 1.170999999999999992e-02 4.565450000000000230e+00 2.971699999999999897e-01 5.969149999999999956e+00 1.197629999999999972e+00 2.303600000000000092e-01 3.975540000000000074e+00 4.619489999999999874e+00 3.265899999999999914e-01 -1.301000000000000073e-02 2.285219999999999807e+00 4.219299999999999606e+00 -1.964460000000000095e+00 5.731250000000000178e+00 4.223799999999999777e+00 3.976459999999999884e+00 2.268400000000000194e+00 4.213359999999999772e+00 1.917089999999999961e+00 5.658280000000000420e+00 4.183740000000000236e+00 1.927939999999999987e+00 1.152220000000000022e+00 7.357649999999999579e+00 4.839999999999999684e-03 4.550849999999999618e+00 7.349619999999999820e+00 5.918650000000000411e+00 1.128069999999999906e+00 7.338339999999999641e+00 3.944719999999999782e+00 4.562400000000000233e+00 7.368450000000000166e+00
3.466000000000000331e-02 2.233299999999999841e+00 1.572340000000000071e+00 -1.980839999999999934e+00 5.733620000000000161e+00 1.646889999999999965e+00 3.967670000000000030e+00 2.282090000000000174e+00 1.592940000000000023e+00 1.920930000000000026e+00 5.713910000000000267e+00 1.616249999999999964e+00 -3.940010000000000012e+00 6.829769999999999897e+00 5.948970000000000091e+00 -1.937240000000000073e+00 3.390420000000000211e+00 5.938209999999999766e+00 -3.810000000000000019e-03 6.827880000000000393e+00 5.894449999999999967e+00 1.979510000000000103e+00 3.459080000000000155e+00 5.975600000000000023e+00 1.958679999999999977e+00 1.170120000000000049e+00 2.278000000000000025e-01 1.200999999999999984e-02 4.565489999999999604e+00 3.010499999999999843e-01 5.972269999999999968e+00 1.203259999999999996e+00 2.270999999999999963e-01 3.977040000000000131e+00 4.625250000000000306e+00 3.338099999999999956e-01 -1.299999999999999940e-02 2.284539999999999793e+00 4.220229999999999926e+00 -1.962050000000000072e+00 5.733060000000000045e+00 4.225799999999999557e+00 3.980010000000000048e+00 2.266220000000000123e+00 4.213910000000000267e+00 1.912009999999999987e+00 5.652300000000000324e+00 4.181499999999999773e+00 1.923079999999999901e+00 1.153680000000000039e+00 7.355769999999999698e+00 5.219999999999999814e-03 4.549890000000000434e+00 7.347150000000000070e+00 5.917159999999999975e+00 1.126759999999999984e+00 7.334430000000000227e+00 3.944100000000000161e+00 4.562299999999999578e+00 7.367729999999999890e+00
3.701000000000000123e-02 2.229340000000000099e+00 1.568889999999999896e+00 -1.981840000000000046e+00 5.737029999999999852e+00 1.649990000000000068e+00 3.968119999999999870e+00 2.282709999999999795e+00 1.590810000000000057e+00 1.914649999999999963e+00 5.715559999999999974e+00 1.616170000000000107e+00 -3.938460000000000072e+00 6.827530000000000321e+00 5.951179999999999914e+00 -1.933159999999999989e+00 3.386680000000000135e+00 5.939490000000000158e+00 -3.959999999999999978e-03 6.825639999999999930e+00 5.891639999999999766e+00 1.980199999999999960e+00 3.461710000000000065e+00 5.980430000000000135e+00 1.957170000000000076e+00 1.172509999999999941e+00 2.245199999999999974e-01 1.216000000000000067e-02 4.565540000000000376e+00 3.049100000000000144e-01 5.975240000000000329e+00 1.208720000000000017e+00 2.238900000000000057e-01 3.978439999999999976e+00 4.630980000000000096e+00 3.410500000000000198e-01 -1.291999999999999919e-02 2.283770000000000078e+00 4.220850000000000435e+00 -1.959699999999999998e+00 5.734840000000000160e+00 4.227660000000000196e+00 3.983540000000000081e+00 2.264079999999999870e+00 4.214229999999999698e+00 1.907030000000000003e+00 5.646359999999999602e+00 4.179160000000000430e+00 1.918369999999999909e+00 1.155100000000000016e+00 7.353769999999999918e+00 5.539999999999999786e-03 4.549030000000000129e+00 7.344640000000000057e+00 5.915619999999999656e+00 1.125380000000000047e+00 7.330429999999999779e+00 3.943610000000000060e+00 4.562170000000000059e+00 7.366880000000000095e+00
3.930999999999999772e-02 2.225459999999999994e+00 1.565770000000000106e+00 -1.982769999999999921e+00 5.740490000000000315e+00 1.653200000000000003e+00 3.968580000000000219e+00 2.283370000000000122e+00 1.588799999999999990e+00 1.908420000000000005e+00 5.717340000000000089e+00 1.616139999999999910e+00 -3.936980000000000146e+00 6.825300000000000367e+00 5.953389999999999738e+00 -1.929149999999999920e+00 3.382950000000000124e+00 5.940809999999999924e+00 -4.159999999999999636e-03 6.823450000000000237e+00 5.888939999999999841e+00 1.980909999999999949e+00 3.464210000000000012e+00 5.985260000000000247e+00 1.955899999999999972e+00 1.174779999999999935e+00 2.212300000000000100e-01 1.216000000000000067e-02 4.565629999999999633e+00 3.087599999999999789e-01 5.978049999999999642e+00 1.214010000000000034e+00 2.207300000000000095e-01 3.979729999999999990e+00 4.636669999999999625e+00 3.483200000000000185e-01 -1.274999999999999918e-02 2.282929999999999904e+00 4.221149999999999736e+00 -1.957419999999999938e+00 5.736589999999999634e+00 4.229390000000000427e+00 3.987049999999999983e+00 2.261979999999999880e+00 4.214310000000000223e+00 1.902139999999999942e+00 5.640460000000000029e+00 4.176730000000000054e+00 1.913829999999999920e+00 1.156500000000000083e+00 7.351650000000000240e+00 5.780000000000000415e-03 4.548289999999999722e+00 7.342100000000000293e+00 5.914039999999999964e+00 1.123920000000000030e+00 7.326340000000000074e+00 3.943239999999999856e+00 4.562020000000000408e+00 7.365899999999999892e+00
4.155999999999999972e-02 2.221690000000000165e+00 1.562969999999999970e+00 -1.983619999999999939e+00 5.744030000000000413e+00 1.656509999999999927e+00 3.969059999999999810e+00 2.284060000000000201e+00 1.586899999999999977e+00 1.902230000000000087e+00 5.719240000000000101e+00 1.616170000000000107e+00 -3.935569999999999791e+00 6.823080000000000034e+00 5.955610000000000070e+00 -1.925189999999999957e+00 3.379210000000000047e+00 5.942179999999999573e+00 -4.389999999999999805e-03 6.821329999999999671e+00 5.886339999999999684e+00 1.981659999999999977e+00 3.466590000000000060e+00 5.990099999999999980e+00 1.954879999999999951e+00 1.176919999999999966e+00 2.179300000000000126e-01 1.197999999999999933e-02 4.565730000000000288e+00 3.125800000000000245e-01 5.980699999999999683e+00 1.219119999999999981e+00 2.175900000000000056e-01 3.980910000000000171e+00 4.642330000000000290e+00 3.556099999999999817e-01 -1.248999999999999937e-02 2.281989999999999963e+00 4.221119999999999983e+00 -1.955209999999999892e+00 5.738299999999999734e+00 4.230979999999999741e+00 3.990540000000000198e+00 2.259910000000000085e+00 4.214140000000000441e+00 1.897350000000000092e+00 5.634579999999999700e+00 4.174210000000000420e+00 1.909459999999999935e+00 1.157869999999999955e+00 7.349420000000000286e+00 5.939999999999999968e-03 4.547659999999999592e+00 7.339559999999999640e+00 5.912399999999999878e+00 1.122379999999999933e+00 7.322160000000000224e+00 3.943020000000000191e+00 4.561840000000000117e+00 7.364790000000000170e+00
4.377000000000000335e-02 2.218010000000000037e+00 1.560519999999999907e+00 -1.984390000000000098e+00 5.747659999999999769e+00 1.659939999999999971e+00 3.969549999999999912e+00 2.284790000000000099e+00 1.585129999999999928e+00 1.896079999999999988e+00 5.721289999999999765e+00 1.616260000000000030e+00 -3.934229999999999894e+00 6.820859999999999701e+00 5.957819999999999894e+00 -1.921280000000000099e+00 3.375469999999999970e+00 5.943570000000000242e+00 -4.660000000000000080e-03 6.819270000000000387e+00 5.883829999999999671e+00 1.982439999999999980e+00 3.468840000000000146e+00 5.994939999999999714e+00 1.954129999999999923e+00 1.178930000000000033e+00 2.146099999999999952e-01 1.161000000000000053e-02 4.565859999999999808e+00 3.163699999999999846e-01 5.983159999999999812e+00 1.224050000000000082e+00 2.144800000000000040e-01 3.981959999999999944e+00 4.647969999999999935e+00 3.629499999999999948e-01 -1.213000000000000016e-02 2.280949999999999811e+00 4.220740000000000158e+00 -1.953079999999999927e+00 5.739969999999999573e+00 4.232440000000000424e+00 3.994019999999999904e+00 2.257880000000000109e+00 4.213720000000000354e+00 1.892640000000000100e+00 5.628730000000000011e+00 4.171610000000000262e+00 1.905259999999999954e+00 1.159219999999999917e+00 7.347089999999999677e+00 6.020000000000000177e-03 4.547170000000000378e+00 7.337019999999999875e+00 5.910700000000000287e+00 1.120730000000000004e+00 7.317899999999999849e+00 3.942940000000000111e+00 4.561619999999999564e+00 7.363579999999999792e+00
4.592000000000000248e-02 2.214430000000000121e+00 1.558440000000000047e+00 -1.985060000000000047e+00 5.751380000000000159e+00 1.663489999999999913e+00 3.970060000000000144e+00 2.285550000000000193e+00 1.583479999999999999e+00 1.889979999999999993e+00 5.723489999999999966e+00 1.616409999999999902e+00 -3.932960000000000012e+00 6.818649999999999878e+00 5.960020000000000095e+00 -1.917429999999999968e+00 3.371700000000000141e+00 5.944989999999999775e+00 -4.980000000000000052e-03 6.817269999999999719e+00 5.881409999999999805e+00 1.983260000000000023e+00 3.470950000000000202e+00 5.999769999999999825e+00 1.953670000000000018e+00 1.180800000000000072e+00 2.112499999999999933e-01 1.102999999999999987e-02 4.566010000000000346e+00 3.201300000000000257e-01 5.985430000000000028e+00 1.228809999999999958e+00 2.113899999999999946e-01 3.982880000000000198e+00 4.653599999999999959e+00 3.703199999999999825e-01 -1.166000000000000023e-02 2.279790000000000205e+00 4.219999999999999751e+00 -1.951019999999999976e+00 5.741600000000000037e+00 4.233780000000000321e+00 3.997479999999999922e+00 2.255879999999999885e+00 4.213029999999999831e+00 1.888030000000000097e+00 5.622889999999999944e+00 4.168919999999999959e+00 1.901250000000000107e+00 1.160539999999999905e+00 7.344649999999999679e+00 6.000000000000000125e-03 4.546820000000000306e+00 7.334480000000000111e+00 5.908929999999999794e+00 1.118970000000000020e+00 7.313570000000000348e+00 3.943029999999999813e+00 4.561370000000000147e+00 7.362260000000000026e+00
4.803999999999999937e-02 2.210939999999999905e+00 1.556720000000000104e+00 -1.985630000000000006e+00 5.755209999999999937e+00 1.667180000000000106e+00 3.970590000000000064e+00 2.286360000000000170e+00 1.581949999999999967e+00 1.883899999999999908e+00 5.725869999999999571e+00 1.616610000000000102e+00 -3.931779999999999831e+00 6.816430000000000433e+00 5.962200000000000166e+00 -1.913629999999999942e+00 3.367919999999999803e+00 5.946419999999999817e+00 -5.349999999999999721e-03 6.815339999999999954e+00 5.879059999999999953e+00 1.984129999999999949e+00 3.472919999999999785e+00 6.004599999999999937e+00 1.953519999999999923e+00 1.182530000000000081e+00 2.078399999999999970e-01 1.022999999999999951e-02 4.566189999999999749e+00 3.238699999999999912e-01 5.987499999999999822e+00 1.233379999999999921e+00 2.083000000000000129e-01 3.983649999999999913e+00 4.659220000000000361e+00 3.777599999999999847e-01 -1.108999999999999916e-02 2.278509999999999813e+00 4.218910000000000160e+00 -1.949049999999999949e+00 5.743199999999999861e+00 4.235000000000000320e+00 4.000939999999999941e+00 2.253919999999999924e+00 4.212080000000000268e+00 1.883490000000000109e+00 5.617060000000000386e+00 4.166150000000000020e+00 1.897429999999999950e+00 1.161829999999999918e+00 7.342130000000000045e+00 5.879999999999999810e-03 4.546610000000000262e+00 7.331970000000000098e+00 5.907090000000000174e+00 1.117089999999999916e+00 7.309160000000000323e+00 3.943299999999999805e+00 4.561079999999999579e+00 7.360829999999999984e+00
5.009999999999999870e-02 2.207539999999999836e+00 1.555390000000000050e+00 -1.986099999999999977e+00 5.759170000000000122e+00 1.671019999999999950e+00 3.971140000000000114e+00 2.287230000000000096e+00 1.580540000000000056e+00 1.877839999999999954e+00 5.728430000000000355e+00 1.616870000000000029e+00 -3.930670000000000108e+00 6.814210000000000100e+00 5.964349999999999596e+00 -1.909880000000000022e+00 3.364100000000000090e+00 5.947860000000000369e+00 -5.760000000000000363e-03 6.813480000000000203e+00 5.876769999999999605e+00 1.985039999999999916e+00 3.474740000000000162e+00 6.009430000000000049e+00 1.953680000000000083e+00 1.184120000000000061e+00 2.043800000000000061e-01 9.180000000000000659e-03 4.566379999999999661e+00 3.275799999999999823e-01 5.989370000000000083e+00 1.237770000000000037e+00 2.051999999999999935e-01 3.984259999999999913e+00 4.664839999999999876e+00 3.852599999999999913e-01 -1.038000000000000034e-02 2.277099999999999902e+00 4.217439999999999856e+00 -1.947170000000000067e+00 5.744760000000000311e+00 4.236100000000000421e+00 4.004410000000000025e+00 2.251990000000000158e+00 4.210849999999999760e+00 1.879040000000000044e+00 5.611209999999999809e+00 4.163289999999999935e+00 1.893799999999999928e+00 1.163100000000000023e+00 7.339509999999999756e+00 5.660000000000000100e-03 4.546549999999999869e+00 7.329489999999999839e+00 5.905160000000000409e+00 1.115070000000000006e+00 7.304669999999999774e+00 3.943760000000000154e+00 4.560740000000000016e+00 7.359320000000000306e+00
5.213000000000000272e-02 2.204250000000000043e+00 1.554450000000000109e+00 -1.986450000000000049e+00 5.763270000000000337e+00 1.675010000000000110e+00 3.971719999999999917e+00 2.288149999999999906e+00 1.579239999999999977e+00 1.871809999999999974e+00 5.731200000000000294e+00 1.617189999999999905e+00 -3.929650000000000087e+00 6.811980000000000146e+00 5.966450000000000031e+00 -1.906160000000000077e+00 3.360240000000000116e+00 5.949309999999999654e+00 -6.219999999999999835e-03 6.811689999999999579e+00 5.874539999999999651e+00 1.985999999999999988e+00 3.476410000000000000e+00 6.014249999999999652e+00 1.954180000000000028e+00 1.185559999999999947e+00 2.008399999999999908e-01 7.870000000000000259e-03 4.566600000000000215e+00 3.312599999999999989e-01 5.991019999999999790e+00 1.241989999999999927e+00 2.021000000000000019e-01 3.984710000000000196e+00 4.670480000000000409e+00 3.928599999999999870e-01 -9.549999999999999462e-03 2.275539999999999896e+00 4.215580000000000105e+00 -1.945380000000000109e+00 5.746279999999999610e+00 4.237099999999999866e+00 4.007880000000000109e+00 2.250100000000000211e+00 4.209340000000000082e+00 1.874659999999999993e+00 5.605349999999999611e+00 4.160359999999999836e+00 1.890370000000000106e+00 1.164349999999999996e+00 7.336820000000000341e+00 5.329999999999999669e-03 4.546660000000000146e+00 7.327060000000000350e+00 5.903159999999999741e+00 1.112900000000000000e+00 7.300119999999999720e+00 3.944430000000000103e+00 4.560349999999999682e+00 7.357709999999999972e+00