-7.214139473999999552e+01
-7.213982448999999519e+01
-7.213500175000000070e+01
-7.212706633000000522e+01
-7.211608436999999583e+01
-7.210229529999999443e+01
-7.208588498000000300e+01
-7.206711144000000502e+01
-7.204623902000000157e+01
-7.202355807000000709e+01
-7.199939005000000236e+01
-7.197404740999999717e+01
-7.194789855999999872e+01
-7.192112774000000286e+01
-7.189406332999999449e+01
-7.186701159999999788e+01
-7.184021687999999983e+01
-7.181393024999999852e+01
-7.178836545000000058e+01
-7.176372177000000363e+01
-7.201868765999999766e+01
-7.201440780999999447e+01
-7.200642281000000366e+01
-7.199480518000000018e+01
-7.197973075999999537e+01
-7.196144488999999567e+01
-7.194018982999999423e+01
-7.191626960000000679e+01
-7.189006170000000395e+01
-7.186185602000000472e+01
-7.183199795000000165e+01
-7.180082559000000231e+01
-7.176867679000000066e+01
-7.173588981999999703e+01
-7.170276875999999788e+01
-7.166961295000000121e+01
-7.163701018000000431e+01
-7.160479427999999302e+01
-7.157346680999999933e+01
-7.154321219000000553e+01
-7.246776169000000323e+01
-7.246712721000000101e+01
-7.246434766999999511e+01
-7.245948885999999334e+01
-7.245259244000000365e+01
-7.244375263000000587e+01
-7.243304933999999662e+01
-7.242059491999999921e+01
-7.240648756000000219e+01
-7.239091718999999614e+01
-7.237399469999999724e+01
-7.235582711000000700e+01
-7.233652881000000434e+01
-7.231637498999999991e+01
-7.229548466999999334e+01
-7.227402662000000078e+01
-7.225213874000000658e+01
-7.223020470000000159e+01
-7.220827296999999589e+01
-7.218658524999999315e+01
-7.159033402999999396e+01
-7.159047934000000168e+01
-7.158640483000000643e+01
-7.157840659000000016e+01
-7.156669641999999953e+01
-7.155157164999999964e+01
-7.153340235999999663e+01
-7.151264840999999706e+01
-7.148972233000000642e+01
-7.146518919000000380e+01
-7.143949648000000252e+01
-7.141319305000000384e+01
-7.138676775000000418e+01
-7.136067443999999682e+01
-7.133548881999999480e+01
-7.131131363000000079e+01
-7.128868593999999348e+01
-7.126790192999999363e+01
-7.124919074999999680e+01
-7.123270875000000046e+01
-7.211616059000000689e+01
-7.211566487000000336e+01
-7.211013599999999713e+01
-7.209982250999999565e+01
-7.208483963000000472e+01
-7.206527337999999361e+01
-7.204164040000000568e+01
-7.201423796000000266e+01
-7.198360087999999735e+01
-7.194990617000000555e+01
-7.191393872999999815e+01
-7.187609310000000562e+01
-7.183694547000000341e+01
-7.179703596999999604e+01
-7.175686029000000588e+01
-7.171691284000000621e+01
-7.167772843000000194e+01
-7.163972470999999587e+01
-7.160338176000000487e+01
-7.156908051999999998e+01
