-1.875100000000000031e-02 2.614599999999999910e-02 1.130499999999999977e-01 -1.875100000000000031e-02 2.614599999999999910e-02 1.130359999999999976e-01 -1.874899999999999831e-02 2.614599999999999910e-02 1.130499999999999977e-01 -1.874999999999999931e-02 2.614800000000000110e-02 1.130789999999999990e-01 -3.937000000000000395e-03 -1.777099999999999860e-02 2.859990000000000032e-01 -3.937000000000000395e-03 -1.777199999999999960e-02 2.859990000000000032e-01 -3.938999999999999793e-03 -1.777300000000000060e-02 2.860070000000000112e-01 -3.938999999999999793e-03 -1.777199999999999960e-02 2.859900000000000220e-01 1.285799999999999964e-02 -2.427299999999999944e-02 1.942869999999999875e-01 1.285700000000000037e-02 -2.427500000000000144e-02 1.942859999999999865e-01 1.285500000000000011e-02 -2.427400000000000044e-02 1.942859999999999865e-01 1.285599999999999937e-02 -2.427599999999999897e-02 1.942859999999999865e-01 1.813499999999999834e-02 -6.662000000000000387e-03 -2.208970000000000100e-01 1.813899999999999887e-02 -6.658999999999999989e-03 -2.208930000000000060e-01 1.813599999999999934e-02 -6.662999999999999652e-03 -2.208940000000000070e-01 1.813400000000000081e-02 -6.661000000000000254e-03 -2.208940000000000070e-01 -8.155000000000000790e-03 2.247800000000000145e-02 -3.723279999999999923e-01 -8.156999999999999321e-03 2.248199999999999851e-02 -3.723299999999999943e-01 -8.155000000000000790e-03 2.248100000000000098e-02 -3.723310000000000231e-01 -8.151000000000000259e-03 2.248299999999999951e-02 -3.723259999999999903e-01
-3.520299999999999818e-02 5.853099999999999969e-02 2.047809999999999908e-01 5.016999999999999758e-03 3.221999999999999864e-02 1.158929999999999960e-01 -1.597000000000000156e-02 3.001099999999999948e-02 1.409890000000000032e-01 8.044000000000000802e-03 5.397300000000000014e-02 1.096260000000000012e-01 -2.622400000000000078e-02 -7.207999999999999997e-03 2.571720000000000117e-01 -3.242699999999999749e-02 -6.451000000000000137e-03 2.719030000000000058e-01 -1.919799999999999979e-02 8.536999999999999450e-03 3.012389999999999790e-01 2.648999999999999879e-03 -5.692400000000000237e-02 2.501149999999999762e-01 5.852399999999999963e-02 -5.103400000000000297e-02 1.911080000000000001e-01 -1.661400000000000030e-02 -1.282400000000000033e-02 1.731320000000000081e-01 -2.309800000000000048e-02 -7.057599999999999985e-02 1.992690000000000017e-01 -8.410000000000000808e-03 -3.780800000000000133e-02 1.739459999999999895e-01 3.219099999999999739e-02 -2.043700000000000030e-02 -2.703160000000000007e-01 7.569999999999999689e-04 -1.494400000000000069e-02 -2.270909999999999873e-01 4.748999999999999749e-03 5.171000000000000249e-03 -2.478390000000000037e-01 4.728899999999999770e-02 1.314899999999999923e-02 -2.094989999999999908e-01 3.561299999999999882e-02 8.975999999999999604e-03 -3.629999999999999893e-01 -2.139699999999999935e-02 4.404299999999999882e-02 -3.405710000000000126e-01 -1.487100000000000054e-02 8.769000000000000752e-03 -3.513109999999999844e-01 1.887799999999999895e-02 1.478900000000000006e-02 -3.660240000000000160e-01
-5.200500000000000261e-02 9.145100000000000451e-02 3.056180000000000008e-01 2.917700000000000154e-02 3.852900000000000075e-02 1.300060000000000104e-01 -1.288300000000000035e-02 3.391999999999999876e-02 1.783170000000000033e-01 3.554800000000000321e-02 8.155900000000000649e-02 1.176230000000000053e-01 -4.829300000000000259e-02 3.288000000000000124e-03 2.363959999999999950e-01 -6.020500000000000157e-02 4.423999999999999981e-03 2.652630000000000265e-01 -3.317799999999999916e-02 3.437099999999999878e-02 3.234569999999999945e-01 9.384999999999999246e-03 -9.602600000000000025e-02 2.216879999999999962e-01 1.048639999999999989e-01 -7.781699999999999728e-02 1.790110000000000035e-01 -4.663099999999999884e-02 -2.090999999999999977e-03 1.433250000000000079e-01 -5.980099999999999999e-02 -1.160690000000000055e-01 1.953100000000000114e-01 -3.051900000000000099e-02 -5.172700000000000214e-02 1.453190000000000037e-01 4.648999999999999660e-02 -3.456300000000000344e-02 -3.296009999999999773e-01 -1.705500000000000071e-02 -2.341499999999999831e-02 -2.453410000000000035e-01 -8.496000000000000080e-03 1.703199999999999853e-02 -2.858479999999999910e-01 7.583099999999999563e-02 3.269199999999999884e-02 -2.105009999999999937e-01 7.871300000000000519e-02 -3.827999999999999806e-03 -3.567620000000000235e-01 -3.484299999999999897e-02 6.574199999999999489e-02 -3.126550000000000162e-01 -2.156200000000000130e-02 -5.086000000000000243e-03 -3.341430000000000233e-01 4.563500000000000195e-02 7.369999999999999815e-03 -3.631190000000000251e-01
-6.917600000000000138e-02 1.247980000000000061e-01 4.055119999999999836e-01 5.365299999999999930e-02 4.480499999999999761e-02 1.451840000000000075e-01 -9.679999999999999369e-03 3.771000000000000046e-02 2.153220000000000134e-01 6.431599999999999817e-02 1.086560000000000026e-01 1.270540000000000003e-01 -7.018699999999999939e-02 1.362700000000000022e-02 2.150839999999999974e-01 -8.753400000000000070e-02 1.544300000000000013e-02 2.578670000000000129e-01 -4.575300000000000200e-02 5.961899999999999838e-02 3.448129999999999806e-01 1.611500000000000085e-02 -1.349650000000000016e-01 1.928900000000000059e-01 1.516369999999999940e-01 -1.045500000000000040e-01 1.649579999999999935e-01 -7.728699999999999459e-02 7.818999999999999562e-03 1.122790000000000038e-01 -9.696699999999999764e-02 -1.603719999999999868e-01 1.894520000000000093e-01 -5.312900000000000261e-02 -6.556299999999999628e-02 1.159909999999999969e-01 6.093500000000000305e-02 -4.878299999999999997e-02 -3.854630000000000001e-01 -3.509899999999999826e-02 -3.204599999999999810e-02 -2.623130000000000184e-01 -2.150799999999999934e-02 2.881299999999999834e-02 -3.215489999999999737e-01 1.035719999999999974e-01 5.180300000000000182e-02 -2.103450000000000042e-01 1.209199999999999997e-01 -1.575800000000000117e-02 -3.488229999999999942e-01 -4.849500000000000338e-02 8.742099999999999871e-02 -2.836799999999999877e-01 -2.816000000000000100e-02 -1.908999999999999933e-02 -3.159549999999999859e-01 7.215299999999999492e-02 1.900000000000000105e-04 -3.585869999999999891e-01
-8.657399999999999818e-02 1.585920000000000107e-01 5.007059999999999844e-01 7.837299999999999822e-02 5.089099999999999874e-02 1.577610000000000123e-01 -6.396999999999999909e-03 4.149100000000000010e-02 2.488680000000000059e-01 9.434599999999999931e-02 1.352720000000000034e-01 1.347990000000000022e-01 -9.189100000000000046e-02 2.401199999999999862e-02 1.908590000000000009e-01 -1.147569999999999979e-01 2.660200000000000065e-02 2.468180000000000096e-01 -5.704900000000000249e-02 8.458400000000000640e-02 3.628129999999999966e-01 2.282800000000000107e-02 -1.738490000000000035e-01 1.610419999999999907e-01 1.987790000000000112e-01 -1.310840000000000061e-01 1.513809999999999878e-01 -1.083889999999999992e-01 1.684000000000000080e-02 8.210699999999999943e-02 -1.345330000000000137e-01 -2.034640000000000060e-01 1.840350000000000041e-01 -7.637599999999999945e-02 -7.961300000000000321e-02 8.790699999999999903e-02 7.546700000000000630e-02 -6.318400000000000405e-02 -4.361729999999999774e-01 -5.338699999999999696e-02 -4.083699999999999830e-02 -2.762459999999999916e-01 -3.425700000000000273e-02 4.049099999999999921e-02 -3.533499999999999974e-01 1.305250000000000021e-01 7.055699999999999472e-02 -2.075059999999999960e-01 1.623699999999999866e-01 -2.695799999999999932e-02 -3.380279999999999951e-01 -6.236799999999999983e-02 1.091140000000000027e-01 -2.526320000000000232e-01 -3.470600000000000074e-02 -3.327499999999999902e-02 -2.956289999999999751e-01 9.844700000000000673e-02 -6.785000000000000232e-03 -3.514450000000000074e-01
-1.040480000000000016e-01 1.925840000000000052e-01 5.898660000000000014e-01 1.032570000000000016e-01 5.714600000000000235e-02 1.674589999999999967e-01 -2.987000000000000072e-03 4.542299999999999810e-02 2.778329999999999966e-01 1.253180000000000127e-01 1.613769999999999927e-01 1.399019999999999986e-01 -1.133590000000000014e-01 3.436199999999999671e-02 1.631799999999999917e-01 -1.413949999999999929e-01 3.771900000000000253e-02 2.315359999999999918e-01 -6.723600000000000410e-02 1.090119999999999978e-01 3.760800000000000254e-01 2.938599999999999893e-02 -2.123909999999999965e-01 1.257810000000000039e-01 2.456589999999999885e-01 -1.571019999999999917e-01 1.395480000000000054e-01 -1.396459999999999924e-01 2.462400000000000005e-02 5.391200000000000159e-02 -1.720339999999999925e-01 -2.450869999999999993e-01 1.802660000000000096e-01 -1.001200000000000007e-01 -9.412600000000000133e-02 6.197500000000000231e-02 8.987599999999999756e-02 -7.745100000000000595e-02 -4.810610000000000164e-01 -7.182099999999999596e-02 -4.988999999999999685e-02 -2.870340000000000114e-01 -4.672400000000000164e-02 5.204500000000000098e-02 -3.810970000000000191e-01 1.564889999999999892e-01 8.886499999999999955e-02 -2.019600000000000006e-01 2.028409999999999935e-01 -3.732200000000000101e-02 -3.236319999999999752e-01 -7.622500000000000109e-02 1.304960000000000009e-01 -2.190390000000000115e-01 -4.086499999999999855e-02 -4.748200000000000337e-02 -2.724369999999999847e-01 1.243200000000000000e-01 -1.348199999999999919e-02 -3.410420000000000118e-01
-1.217420000000000030e-01 2.266019999999999979e-01 6.754200000000000204e-01 1.283070000000000044e-01 6.340600000000000402e-02 1.761770000000000003e-01 5.500000000000000331e-04 4.931499999999999773e-02 3.046860000000000124e-01 1.570989999999999887e-01 1.869369999999999921e-01 1.447219999999999895e-01 -1.345010000000000094e-01 4.457400000000000251e-02 1.324079999999999979e-01 -1.675919999999999910e-01 4.902100000000000207e-02 2.127900000000000069e-01 -7.610300000000000398e-02 1.328010000000000024e-01 3.854699999999999793e-01 3.579600000000000143e-02 -2.501740000000000075e-01 8.757099999999999607e-02 2.923109999999999875e-01 -1.827040000000000053e-01 1.267109999999999903e-01 -1.712009999999999921e-01 3.147699999999999804e-02 2.517499999999999946e-02 -2.094840000000000035e-01 -2.852500000000000036e-01 1.753850000000000131e-01 -1.242280000000000051e-01 -1.085919999999999941e-01 3.582199999999999968e-02 1.041969999999999980e-01 -9.172099999999999698e-02 -5.213489999999999513e-01 -9.032999999999999363e-02 -5.898199999999999971e-02 -2.953459999999999974e-01 -5.882500000000000229e-02 6.338299999999999490e-02 -4.053780000000000161e-01 1.814240000000000019e-01 1.065789999999999932e-01 -1.940409999999999913e-01 2.422989999999999866e-01 -4.689299999999999718e-02 -3.070350000000000024e-01 -9.014500000000000290e-02 1.516349999999999920e-01 -1.841119999999999979e-01 -4.689600000000000019e-02 -6.176999999999999852e-02 -2.476970000000000005e-01 1.498589999999999922e-01 -2.001899999999999860e-02 -3.284929999999999795e-01
-1.394269999999999954e-01 2.602320000000000189e-01 7.589120000000000310e-01 1.529840000000000089e-01 6.946099999999999497e-02 1.863420000000000076e-01 4.014000000000000207e-03 5.331700000000000328e-02 3.318530000000000091e-01 1.891649999999999998e-01 2.116550000000000098e-01 1.517409999999999870e-01 -1.553239999999999899e-01 5.462800000000000294e-02 1.017509999999999942e-01 -1.932790000000000064e-01 6.051000000000000129e-02 1.935149999999999926e-01 -8.386100000000000498e-02 1.559329999999999883e-01 3.939179999999999904e-01 4.195299999999999724e-02 -2.873729999999999896e-01 4.939299999999999941e-02 3.381319999999999881e-01 -2.075460000000000083e-01 1.126680000000000043e-01 -2.027190000000000103e-01 3.710999999999999716e-02 -4.655000000000000283e-03 -2.463690000000000047e-01 -3.236069999999999780e-01 1.690029999999999866e-01 -1.484860000000000069e-01 -1.232029999999999931e-01 8.647000000000000172e-03 1.183069999999999955e-01 -1.058090000000000003e-01 -5.593080000000000274e-01 -1.089169999999999999e-01 -6.817399999999999849e-02 -3.038080000000000225e-01 -7.062599999999999434e-02 7.451399999999999690e-02 -4.288150000000000017e-01 2.053719999999999990e-01 1.238879999999999981e-01 -1.864899999999999891e-01 2.808229999999999893e-01 -5.572699999999999876e-02 -2.888410000000000144e-01 -1.039950000000000041e-01 1.723570000000000102e-01 -1.484959999999999891e-01 -5.253000000000000030e-02 -7.602799999999999836e-02 -2.218229999999999924e-01 1.750220000000000109e-01 -2.636300000000000102e-02 -3.144730000000000025e-01
-1.570439999999999892e-01 2.936070000000000069e-01 8.348919999999999675e-01 1.775680000000000036e-01 7.545399999999999330e-02 1.916589999999999960e-01 7.610999999999999710e-03 5.736100000000000226e-02 3.531540000000000235e-01 2.221740000000000104e-01 2.357420000000000071e-01 1.545910000000000062e-01 -1.757789999999999908e-01 6.456599999999999839e-02 6.676300000000000290e-02 -2.185030000000000028e-01 7.214399999999999979e-02 1.691779999999999951e-01 -9.063499999999999335e-02 1.784239999999999993e-01 3.966899999999999871e-01 4.790799999999999920e-02 -3.237090000000000245e-01 6.910999999999999609e-03 3.829250000000000154e-01 -2.314700000000000091e-01 1.007210000000000050e-01 -2.340849999999999875e-01 4.151200000000000029e-02 -3.227900000000000214e-02 -2.825690000000000146e-01 -3.601409999999999889e-01 1.643670000000000131e-01 -1.728169999999999984e-01 -1.378900000000000126e-01 -1.633700000000000083e-02 1.320350000000000135e-01 -1.195910000000000029e-01 -5.905390000000000361e-01 -1.274129999999999985e-01 -7.748599999999999932e-02 -3.077639999999999820e-01 -8.196699999999999819e-02 8.536399999999999544e-02 -4.470290000000000097e-01 2.281789999999999929e-01 1.405359999999999943e-01 -1.747130000000000072e-01 3.181579999999999964e-01 -6.377700000000000036e-02 -2.678369999999999918e-01 -1.176539999999999947e-01 1.925000000000000044e-01 -1.111749999999999960e-01 -5.773799999999999766e-02 -9.019399999999999640e-02 -1.937629999999999908e-01 1.996900000000000064e-01 -3.252300000000000330e-02 -2.978040000000000131e-01
-1.740450000000000053e-01 3.260910000000000197e-01 9.081120000000000303e-01 2.016479999999999939e-01 8.122500000000000553e-02 1.982679999999999998e-01 1.112900000000000000e-02 6.147400000000000087e-02 3.747759999999999980e-01 2.552110000000000212e-01 2.589400000000000035e-01 1.594329999999999914e-01 -1.958110000000000128e-01 7.423699999999999743e-02 3.302599999999999980e-02 -2.427610000000000046e-01 8.372200000000000475e-02 1.456179999999999974e-01 -9.645499999999999907e-02 2.000550000000000106e-01 3.995659999999999767e-01 5.351999999999999813e-02 -3.588290000000000091e-01 -3.381100000000000078e-02 4.261949999999999905e-01 -2.542530000000000068e-01 8.800900000000000389e-02 -2.651080000000000103e-01 4.467999999999999750e-02 -6.060200000000000309e-02 -3.177150000000000252e-01 -3.946399999999999908e-01 1.585489999999999955e-01 -1.970389999999999919e-01 -1.525219999999999909e-01 -4.205799999999999816e-02 1.453679999999999972e-01 -1.330679999999999918e-01 -6.196880000000000166e-01 -1.458139999999999992e-01 -8.682499999999999940e-02 -3.119430000000000258e-01 -9.282899999999999485e-02 9.588199999999999501e-02 -4.647359999999999824e-01 2.498299999999999965e-01 1.566089999999999982e-01 -1.635860000000000092e-01 3.543470000000000231e-01 -7.109500000000000541e-02 -2.460360000000000047e-01 -1.310510000000000008e-01 2.119820000000000038e-01 -7.416100000000000469e-02 -6.249099999999999794e-02 -1.042339999999999933e-01 -1.653910000000000102e-01 2.239009999999999889e-01 -3.856199999999999906e-02 -2.803689999999999793e-01
-1.906370000000000009e-01 3.575189999999999757e-01 9.765909999999999869e-01 2.252730000000000010e-01 8.649999999999999356e-02 2.034269999999999967e-01 1.468399999999999914e-02 6.567199999999999427e-02 3.943889999999999896e-01 2.885699999999999932e-01 2.812270000000000048e-01 1.637399999999999967e-01 -2.154409999999999936e-01 8.368200000000000638e-02 -1.603000000000000041e-03 -2.663920000000000177e-01 9.533600000000000407e-02 1.206340000000000051e-01 -1.013690000000000008e-01 2.211569999999999925e-01 4.005179999999999851e-01 5.881700000000000123e-02 -3.930480000000000085e-01 -7.535100000000000131e-02 4.676850000000000174e-01 -2.758019999999999916e-01 7.537800000000000056e-02 -2.956840000000000024e-01 4.667899999999999827e-02 -8.892600000000000504e-02 -3.516270000000000229e-01 -4.271409999999999929e-01 1.523100000000000009e-01 -2.210219999999999962e-01 -1.670889999999999875e-01 -6.786499999999999477e-02 1.582349999999999868e-01 -1.461949999999999916e-01 -6.458089999999999664e-01 -1.640959999999999919e-01 -9.620499999999999885e-02 -3.152559999999999807e-01 -1.032929999999999959e-01 1.061010000000000009e-01 -4.808799999999999741e-01 2.703999999999999737e-01 1.721840000000000037e-01 -1.517999999999999905e-01 3.894940000000000069e-01 -7.784199999999999453e-02 -2.234480000000000077e-01 -1.441729999999999956e-01 2.308230000000000004e-01 -3.744399999999999812e-02 -6.675599999999999590e-02 -1.181210000000000038e-01 -1.366420000000000134e-01 2.477030000000000065e-01 -4.448099999999999971e-02 -2.622289999999999899e-01
-2.065379999999999994e-01 3.876209999999999933e-01 1.037039999999999962e+00 2.480819999999999970e-01 9.154099999999999737e-02 2.048929999999999918e-01 1.816600000000000159e-02 7.005699999999999428e-02 4.097410000000000219e-01 3.215029999999999832e-01 3.026829999999999798e-01 1.653930000000000122e-01 -2.344199999999999895e-01 9.285599999999999410e-02 -3.904300000000000131e-02 -2.889689999999999759e-01 1.065320000000000017e-01 9.209000000000000519e-02 -1.055279999999999968e-01 2.412660000000000082e-01 3.966520000000000046e-01 6.358099999999999863e-02 -4.255610000000000226e-01 -1.191090000000000065e-01 5.070390000000000175e-01 -2.959280000000000244e-01 6.548099999999999754e-02 -3.256189999999999918e-01 4.751500000000000168e-02 -1.148499999999999938e-01 -3.840899999999999870e-01 -4.575080000000000258e-01 1.481520000000000059e-01 -2.446309999999999873e-01 -1.815589999999999982e-01 -9.146200000000000163e-02 1.704880000000000007e-01 -1.588060000000000027e-01 -6.657980000000000009e-01 -1.821200000000000041e-01 -1.056089999999999945e-01 -3.147369999999999890e-01 -1.133180000000000021e-01 1.159450000000000064e-01 -4.924919999999999853e-01 2.897109999999999963e-01 1.871279999999999888e-01 -1.363199999999999967e-01 4.232899999999999996e-01 -8.393499999999999572e-02 -1.985800000000000065e-01 -1.568140000000000089e-01 2.486980000000000024e-01 4.840000000000000010e-04 -7.038899999999999324e-02 -1.317059999999999897e-01 -1.058280000000000054e-01 2.708840000000000137e-01 -5.029399999999999843e-02 -2.417060000000000042e-01
-2.218420000000000114e-01 4.164439999999999809e-01 1.097499999999999920e+00 2.703490000000000060e-01 9.626400000000000234e-02 2.104459999999999942e-01 2.159000000000000155e-02 7.432099999999999818e-02 4.286490000000000022e-01 3.544539999999999913e-01 3.231649999999999801e-01 1.718949999999999922e-01 -2.532900000000000151e-01 1.016610000000000014e-01 -7.165100000000000635e-02 -3.112050000000000094e-01 1.182539999999999980e-01 6.808999999999999775e-02 -1.090350000000000069e-01 2.606399999999999828e-01 3.967519999999999936e-01 6.792900000000000327e-02 -4.570000000000000173e-01 -1.576089999999999991e-01 5.433160000000000212e-01 -3.142360000000000153e-01 5.262900000000000217e-02 -3.545320000000000138e-01 4.688799999999999912e-02 -1.440249999999999864e-01 -4.144490000000000118e-01 -4.856050000000000089e-01 1.404749999999999888e-01 -2.676580000000000070e-01 -1.959329999999999961e-01 -1.184370000000000006e-01 1.821589999999999876e-01 -1.708300000000000096e-01 -6.875790000000000513e-01 -1.998040000000000094e-01 -1.149820000000000009e-01 -3.179939999999999989e-01 -1.228360000000000007e-01 1.254049999999999887e-01 -5.074119999999999742e-01 3.077559999999999740e-01 2.016149999999999887e-01 -1.254609999999999892e-01 4.558749999999999747e-01 -8.940800000000000136e-02 -1.758079999999999921e-01 -1.687790000000000123e-01 2.654440000000000133e-01 3.503599999999999770e-02 -7.312100000000000544e-02 -1.449040000000000050e-01 -7.746200000000000307e-02 2.935980000000000256e-01 -5.604399999999999660e-02 -2.231539999999999913e-01
-2.363419999999999965e-01 4.438949999999999840e-01 1.142454999999999998e+00 2.916929999999999801e-01 1.002490000000000048e-01 2.045649999999999968e-01 2.503400000000000070e-02 7.907999999999999752e-02 4.357539999999999747e-01 3.871109999999999829e-01 3.425349999999999784e-01 1.675689999999999957e-01 -2.711830000000000074e-01 1.103729999999999989e-01 -1.133870000000000017e-01 -3.322629999999999750e-01 1.294750000000000068e-01 3.393700000000000189e-02 -1.116779999999999995e-01 2.791130000000000000e-01 3.855140000000000233e-01 7.162100000000000410e-02 -4.867349999999999732e-01 -2.048200000000000021e-01 5.773009999999999531e-01 -3.309759999999999924e-01 4.740699999999999775e-02 -3.827470000000000039e-01 4.544600000000000029e-02 -1.663650000000000129e-01 -4.432929999999999926e-01 -5.117249999999999854e-01 1.394469999999999876e-01 -2.901320000000000010e-01 -2.102439999999999864e-01 -1.390000000000000124e-01 1.929549999999999876e-01 -1.822529999999999983e-01 -6.962369999999999948e-01 -2.172669999999999879e-01 -1.244900000000000034e-01 -3.104069999999999885e-01 -1.319609999999999950e-01 1.345550000000000079e-01 -5.109749999999999570e-01 3.246950000000000114e-01 2.153370000000000006e-01 -1.034220000000000000e-01 4.870280000000000165e-01 -9.445199999999999430e-02 -1.469050000000000078e-01 -1.802340000000000053e-01 2.811150000000000038e-01 7.453899999999999415e-02 -7.528500000000000469e-02 -1.578350000000000031e-01 -4.311199999999999755e-02 3.155299999999999772e-01 -6.174199999999999827e-02 -1.985959999999999948e-01
-2.497119999999999895e-01 4.693930000000000047e-01 1.185359999999999969e+00 3.117119999999999891e-01 1.038700000000000040e-01 2.012259999999999882e-01 2.821900000000000103e-02 8.386200000000000598e-02 4.453369999999999829e-01 4.186130000000000129e-01 3.606880000000000086e-01 1.663399999999999879e-01 -2.885989999999999944e-01 1.186249999999999943e-01 -1.516699999999999993e-01 -3.523890000000000078e-01 1.407839999999999925e-01 2.912000000000000092e-03 -1.139659999999999979e-01 2.965889999999999915e-01 3.765629999999999811e-01 7.467300000000000326e-02 -5.147479999999999833e-01 -2.479290000000000105e-01 6.078360000000000429e-01 -3.457100000000000173e-01 4.152499999999999941e-02 -4.096659999999999746e-01 4.286999999999999839e-02 -1.899160000000000015e-01 -4.697609999999999841e-01 -5.355259999999999465e-01 1.369259999999999922e-01 -3.117159999999999931e-01 -2.240959999999999896e-01 -1.608950000000000102e-01 2.030389999999999973e-01 -1.931370000000000031e-01 -7.046360000000000401e-01 -2.343189999999999995e-01 -1.338920000000000110e-01 -3.045120000000000049e-01 -1.405000000000000138e-01 1.432440000000000102e-01 -5.157340000000000257e-01 3.404929999999999901e-01 2.286030000000000006e-01 -8.345800000000000440e-02 5.169169999999999598e-01 -9.910199999999999565e-02 -1.194989999999999941e-01 -1.909349999999999936e-01 2.955990000000000006e-01 1.112250000000000044e-01 -7.668700000000000516e-02 -1.702919999999999989e-01 -1.049100000000000033e-02 3.368760000000000088e-01 -6.742199999999999582e-02 -1.754610000000000058e-01
-2.622430000000000039e-01 4.932279999999999998e-01 1.217386000000000079e+00 3.306660000000000155e-01 1.069399999999999934e-01 1.909879999999999911e-01 3.145599999999999785e-02 8.903899999999999315e-02 4.482389999999999985e-01 4.502950000000000008e-01 3.776229999999999865e-01 1.594879999999999909e-01 -3.051659999999999928e-01 1.266950000000000021e-01 -1.950349999999999862e-01 -3.715919999999999779e-01 1.521039999999999892e-01 -3.423299999999999954e-02 -1.155629999999999991e-01 3.132340000000000124e-01 3.595360000000000222e-01 7.704999999999999349e-02 -5.408950000000000147e-01 -2.958529999999999771e-01 6.348799999999999999e-01 -3.585479999999999778e-01 3.994999999999999940e-02 -4.352590000000000070e-01 3.942199999999999871e-02 -2.101979999999999960e-01 -4.939500000000000002e-01 -5.573190000000000088e-01 1.375669999999999948e-01 -3.322700000000000098e-01 -2.377279999999999949e-01 -1.799199999999999966e-01 2.121520000000000072e-01 -2.031749999999999945e-01 -7.056210000000000537e-01 -2.508909999999999751e-01 -1.434030000000000027e-01 -2.935630000000000184e-01 -1.486059999999999881e-01 1.514349999999999863e-01 -5.148819999999999508e-01 3.549860000000000237e-01 2.413119999999999987e-01 -5.853200000000000069e-02 5.452489999999999837e-01 -1.034240000000000020e-01 -8.955799999999999872e-02 -2.007859999999999923e-01 3.086169999999999747e-01 1.490670000000000051e-01 -7.725100000000000022e-02 -1.821649999999999936e-01 2.453200000000000172e-02 3.573839999999999795e-01 -7.308699999999999919e-02 -1.496470000000000022e-01
-2.733220000000000094e-01 5.147180000000000089e-01 1.245311999999999975e+00 3.479900000000000215e-01 1.096199999999999952e-01 1.817819999999999991e-01 3.436700000000000171e-02 9.429899999999999394e-02 4.522909999999999986e-01 4.803729999999999944e-01 3.932680000000000065e-01 1.544119999999999937e-01 -3.211649999999999783e-01 1.343519999999999992e-01 -2.351890000000000092e-01 -3.900190000000000046e-01 1.635379999999999889e-01 -6.845299999999999996e-02 -1.169889999999999958e-01 3.288280000000000092e-01 3.447439999999999949e-01 7.882400000000000517e-02 -5.650779999999999692e-01 -3.396199999999999775e-01 6.578920000000000323e-01 -3.690060000000000007e-01 3.821000000000000091e-02 -4.593269999999999853e-01 3.489600000000000340e-02 -2.313939999999999886e-01 -5.153020000000000378e-01 -5.765409999999999702e-01 1.371020000000000016e-01 -3.516909999999999759e-01 -2.508810000000000207e-01 -2.001809999999999978e-01 2.204879999999999896e-01 -2.127040000000000042e-01 -7.052810000000000468e-01 -2.671160000000000201e-01 -1.528100000000000014e-01 -2.829869999999999886e-01 -1.561929999999999985e-01 1.592149999999999954e-01 -5.143060000000000409e-01 3.684100000000000152e-01 2.534959999999999991e-01 -3.467400000000000343e-02 5.722239999999999549e-01 -1.074780000000000041e-01 -6.088500000000000162e-02 -2.096899999999999875e-01 3.202119999999999966e-01 1.842940000000000134e-01 -7.691699999999999926e-02 -1.935320000000000096e-01 5.825299999999999923e-02 3.772570000000000090e-01 -7.885999999999999954e-02 -1.250680000000000125e-01
-2.830829999999999735e-01 5.338690000000000380e-01 1.264896000000000020e+00 3.637310000000000265e-01 1.115219999999999961e-01 1.691310000000000036e-01 3.709099999999999897e-02 9.976300000000000445e-02 4.532630000000000270e-01 5.093999999999999639e-01 4.076799999999999868e-01 1.468540000000000123e-01 -3.364159999999999928e-01 1.418210000000000026e-01 -2.756449999999999734e-01 -4.074949999999999961e-01 1.747930000000000039e-01 -1.039520000000000027e-01 -1.180989999999999956e-01 3.435130000000000128e-01 3.278110000000000190e-01 7.969999999999999307e-02 -5.870589999999999975e-01 -3.831209999999999893e-01 6.766100000000000447e-01 -3.770839999999999748e-01 4.063499999999999751e-02 -4.814869999999999983e-01 2.951399999999999857e-02 -2.495650000000000091e-01 -5.337889999999999580e-01 -5.935390000000000388e-01 1.394489999999999896e-01 -3.697590000000000043e-01 -2.637059999999999960e-01 -2.181120000000000003e-01 2.278199999999999947e-01 -2.213890000000000025e-01 -7.003859999999999530e-01 -2.827919999999999878e-01 -1.622780000000000056e-01 -2.700870000000000215e-01 -1.632579999999999865e-01 1.665429999999999966e-01 -5.109240000000000448e-01 3.806769999999999876e-01 2.651530000000000276e-01 -8.578999999999999820e-03 5.976099999999999746e-01 -1.113620000000000027e-01 -3.056499999999999842e-02 -2.174250000000000071e-01 3.301470000000000238e-01 2.198160000000000114e-01 -7.552699999999999692e-02 -2.041109999999999869e-01 9.364100000000000201e-02 3.961950000000000194e-01 -8.461399999999999477e-02 -9.858999999999999708e-02
-2.915730000000000266e-01 5.508319999999999883e-01 1.276269000000000098e+00 3.780049999999999799e-01 1.127439999999999970e-01 1.533660000000000023e-01 3.966200000000000281e-02 1.055200000000000027e-01 4.520460000000000034e-01 5.373940000000000383e-01 4.205949999999999966e-01 1.376920000000000088e-01 -3.509510000000000129e-01 1.490049999999999986e-01 -3.162349999999999883e-01 -4.239569999999999728e-01 1.860809999999999964e-01 -1.396129999999999871e-01 -1.188120000000000009e-01 3.572219999999999840e-01 3.085490000000000177e-01 7.983099999999999918e-02 -6.067510000000000403e-01 -4.260939999999999728e-01 6.907680000000000486e-01 -3.827130000000000254e-01 4.461600000000000288e-02 -5.016880000000000228e-01 2.336099999999999982e-02 -2.671919999999999851e-01 -5.491629999999999567e-01 -6.080889999999999906e-01 1.420990000000000031e-01 -3.863739999999999952e-01 -2.760259999999999936e-01 -2.361179999999999946e-01 2.341550000000000020e-01 -2.293370000000000131e-01 -6.917710000000000248e-01 -2.980169999999999764e-01 -1.717400000000000038e-01 -2.555589999999999806e-01 -1.698479999999999990e-01 1.734179999999999888e-01 -5.057080000000000464e-01 3.917809999999999904e-01 2.763079999999999981e-01 1.862400000000000166e-02 6.213480000000000114e-01 -1.151699999999999946e-01 -1.374999999999999920e-03 -2.239800000000000124e-01 3.382700000000000151e-01 2.526930000000000009e-01 -7.298499999999999432e-02 -2.139429999999999943e-01 1.279599999999999904e-01 4.142500000000000071e-01 -9.046999999999999487e-02 -7.322700000000000042e-02