7.946117266999999984e+00 0.000000000000000000e+00 0.000000000000000000e+00 4.164349896000000051e+00 7.212865157999999610e+00 0.000000000000000000e+00 0.000000000000000000e+00 0.000000000000000000e+00 2.873933999999999855e+01
