2.171390000000000153e+00 1.065720000000000001e+00 4.076489999999999725e+00 3.849180000000000046e+00 4.967139999999999667e+00 4.038879999999999804e+00 6.305080000000000240e+00 1.066959999999999908e+00 3.552519999999999900e+00 7.774860000000000326e+00 4.474890000000000256e+00 4.206970000000000098e+00 4.246450000000000280e+00 2.396020000000000039e+00 8.506690000000000751e+00 6.157589999999999897e+00 6.045469999999999899e+00 8.954439999999999955e+00 8.680350000000000676e+00 2.830960000000000143e+00 8.232580000000000453e+00 1.040994000000000064e+01 6.349610000000000198e+00 8.352100000000000080e+00 4.263690000000000424e+00 6.858760000000000190e+00 2.425019999999999953e+00 9.601210000000000022e+00 3.226980000000000182e+00 2.914070000000000160e+00 8.282130000000000436e+00 6.741319999999999979e+00 2.995820000000000149e+00 5.742110000000000269e+00 3.452179999999999804e+00 2.725270000000000081e+00 2.558089999999999975e+00 2.024649999999999839e+00 6.448179999999999801e+00 4.579889999999999795e+00 6.126590000000000202e+00 6.425790000000000113e+00 6.462760000000000282e+00 6.024000000000000465e-01 6.020100000000000229e+00 7.335860000000000269e+00 5.045759999999999579e+00 6.580090000000000217e+00 4.559799999999999964e-01 4.960600000000000009e-01 9.762859999999999872e+00 2.532729999999999926e+00 4.240090000000000359e+00 9.794420000000000570e+00 4.345780000000000420e+00 1.351400000000000101e-01 9.835129999999999484e+00 6.528900000000000148e+00 3.616049999999999986e+00 9.839949999999999974e+00
