4.801240972752866654e+00 -5.429987148772650762e+00 -4.477137056618594180e+00 -5.429987148772650762e+00 7.129412282380744870e+00 -4.341614841789666279e+00 -4.477137056618594180e+00 -4.341614841789666279e+00 1.100904667768636180e+01
