-1.006159702900000070e+02
-1.020771843499999960e+02
-1.024369801699999982e+02
-1.011995313700000025e+02
-1.018183597000000020e+02
-1.017620942100000008e+02
-1.029297149500000046e+02
-1.034086633999999947e+02
-1.008446849799999967e+02
-1.008878867899999960e+02
