-2.746560000000000112e-01 4.136360000000000037e-01 6.650509999999999478e-01 -1.937979999999999980e-01 1.057450999999999919e+00 -1.184339999999999976e-01 2.041880000000000084e-01 -8.014050000000000340e-01 -9.572410000000000085e-01 3.558910000000000129e-01 1.240736999999999979e+00 8.658240000000000380e-01 -3.049629999999999841e-01 -1.227681000000000022e+00 8.949700000000000433e-01 1.603789999999999938e-01 -3.449820000000000109e-01 -1.092835000000000001e+00 -4.246940000000000159e-01 -1.523370000000000002e-01 2.205459999999999920e-01 -5.361920000000000019e-01 1.948253000000000013e+00 7.428379999999999983e-01 8.357280000000000264e-01 1.796240999999999977e+00 9.206029999999999491e-01 -1.313600000000000101e+00 8.345139999999999780e-01 4.528016000000000041e+00 5.860290000000000221e-01 7.308350000000000124e-01 1.594700000000000006e-01 4.054929999999999923e-01 8.801849999999999952e-01 1.080791000000000057e+00 -1.657790000000000097e-01 -6.449799999999999978e-02 -6.343889999999999807e-01 -9.471600000000000019e-01 -1.603091000000000044e+00 7.557500000000000329e-02 -5.321339999999999959e-01 1.131307999999999980e+00 -1.009047999999999945e+00 1.161900000000000016e-01 -9.554620000000000335e-01 1.352289999999999881e-01 4.632060000000000066e-01 -2.721879999999999855e-01 7.417510000000000492e-01 -9.330709999999999837e-01 -1.030392999999999892e+00 -5.101120000000000099e-01 4.136699999999999822e-01 -5.524639999999999551e-01 -6.908320000000000016e-01 3.908289999999999820e-01 8.770999999999999283e-03 3.475590000000000068e-01 -5.157469999999999555e-01 1.505209999999999881e-01 3.086630000000000207e-01 1.523539999999999894e-01 -1.373139999999999916e-01 -1.087042999999999981e+00 -1.188193000000000055e+00 -4.686790000000000123e-01 -2.177620000000000111e-01 4.795059999999999878e-01 -4.570310000000000206e-01 -5.434440000000000381e-01 2.340441999999999911e+00 -1.127540999999999904e+00 -3.968205000000000204e+00 3.533990000000000187e-01 1.368729999999999947e-01 -2.740890000000000271e-01 -2.572100000000000081e-02 1.259290000000000131e-01 1.254859999999999864e-01 2.940749999999999753e-01 -3.962049999999999739e-01 -8.764530000000000376e-01 -7.931040000000000312e-01 -9.370779999999999665e-01 1.737460000000000115e-01 5.974319999999999631e-01 7.309499999999999331e-02 -6.231999999999999693e-03
-1.398258000000000001e+00 -5.477659999999999751e-01 -3.106800000000000117e-01 1.268942000000000014e+00 2.211899999999999977e-01 -2.497979999999999923e-01 -1.953399999999999928e-02 -2.573699999999999877e-01 9.633300000000000196e-02 -4.925649999999999751e-01 1.098498999999999892e+00 -8.453349999999999476e-01 -1.649148000000000058e+00 -1.997611999999999943e+00 1.075585999999999931e+00 -5.655790000000000539e-01 -3.764170000000000016e-01 -1.793700000000000072e+00 5.252850000000000019e-01 -1.027951999999999977e+00 8.694530000000000314e-01 -2.268620000000000081e-01 -1.089412999999999965e+00 6.382980000000000320e-01 1.163377000000000105e+00 -1.848311000000000037e+00 2.809559999999999835e-01 -5.239900000000000113e-02 -1.030529000000000028e+00 3.620829999999999882e-01 2.504020000000000135e-01 2.191879999999999939e-01 -3.288639999999999897e-01 4.713809999999999945e-01 8.512189999999999479e-01 -6.617389999999999661e-01 -8.548249999999999460e-01 6.975320000000000409e-01 -1.122959999999999958e+00 7.880390000000000450e-01 6.827539999999999720e-01 -9.821689999999999587e-01 -5.781939999999999857e-01 9.488229999999999720e-01 1.595622000000000096e+00 -8.315960000000000019e-01 1.333944000000000019e+00 -5.049489999999999812e-01 -2.150559999999999972e-01 1.362349999999999950e-01 8.925079999999999680e-01 7.681499999999999440e-02 1.945159999999999945e-01 5.297910000000000119e-01 2.516729999999999801e-01 -5.886199999999999766e-02 -7.223950000000000093e-01 -9.178199999999999692e-01 -1.259516999999999998e+00 2.711799999999999974e-02 1.229460999999999915e+00 1.044797999999999893e+00 -7.109000000000000041e-02 -1.089941999999999966e+00 3.960940000000000016e-01 -1.260840000000000016e-01 6.775550000000000184e-01 -8.799609999999999932e-01 8.025069999999999704e-01 -1.808339999999999947e-01 -1.646870000000000001e-01 -1.753800000000000150e-02 1.195184999999999942e+00 1.834773999999999905e+00 -7.248699999999999588e-02 8.122169999999999668e-01 1.279560000000000031e+00 -5.177009999999999668e-01 -5.836050000000000404e-01 -1.484474999999999989e+00 3.826229999999999909e-01 1.385261999999999993e+00 8.775199999999999667e-02 3.819020000000000192e-01 -3.756249999999999867e-01 4.720059999999999811e-01 7.061579999999999524e-01 -6.375200000000000311e-02 5.239899999999999558e-01 -3.134509999999999796e-01
-1.935510000000000008e-01 7.616939999999999822e-01 1.671330000000000038e-01 7.298419999999999908e-01 8.638190000000000035e-01 -1.205929000000000029e+00 -4.935180000000000122e-01 -1.165840999999999905e+00 -6.043969999999999620e-01 6.090079999999999938e-01 -1.526639999999999942e-01 8.360170000000000101e-01 1.707100000000000006e-01 8.140399999999999858e-01 -2.605560000000000098e-01 -1.726949999999999874e-01 -1.588683000000000067e+00 -7.914510000000000156e-01 8.270790000000000086e-01 -2.952319999999999944e-01 5.220089999999999453e-01 6.462660000000000071e-01 5.920459999999999612e-01 5.687020000000000408e-01 6.721350000000000380e-01 -5.738520000000000287e-01 4.947239999999999971e-01 -9.084090000000000220e-01 -1.503193999999999919e+00 7.211950000000000305e-01 1.160270000000000051e-01 3.579000000000000150e-03 1.532262999999999931e+00 8.657449999999999868e-01 5.621140000000000025e-01 3.641389999999999905e-01 -7.890850000000000364e-01 5.147840000000000193e-01 3.629780000000000229e-01 -6.478399999999999714e-01 1.382700999999999958e+00 -1.797619000000000078e+00 8.099560000000000093e-01 -1.338945999999999970e+00 -2.700400000000000023e-01 8.576559999999999739e-01 5.764019999999999699e-01 -1.092349999999999988e-01 -1.292758999999999991e+00 -9.604629999999999557e-01 -2.775650000000000062e-01 -1.334680000000000033e-01 1.759600000000000053e-01 7.009159999999999835e-01 3.053700000000000164e-02 4.541680000000000161e-01 -1.742340000000000000e-01 -1.201320000000000027e-01 -8.555979999999999697e-01 3.004009999999999736e-01 -3.720660000000000078e-01 2.122800000000000034e-02 -1.324967999999999924e+00 -1.426236999999999977e+00 -5.772479999999999833e-01 -1.147589999999999999e-01 6.890849999999999476e-01 4.571520000000000028e-01 -9.179650000000000309e-01 6.325749999999999984e-01 -1.287040000000000128e-01 -5.548769999999999536e-01 -7.202939999999999898e-01 1.952655000000000030e+00 2.017410000000000037e-01 -2.447090000000000098e-01 8.339050000000000074e-01 -9.407060000000000421e-01 2.851380000000000026e-01 1.140682999999999891e+00 1.149919999999999970e-01 -2.288779999999999981e-01 -9.750060000000000393e-01 1.023471000000000020e+00 3.299400000000000249e-02 -1.186910000000000048e-01 3.527680000000000260e-01 -2.311130000000000129e-01 -8.728080000000000283e-01 1.080850000000000088e+00
8.090779999999999639e-01 -1.525338000000000083e+00 -1.796820000000000084e-01 -7.969880000000000297e-01 -4.928259999999999863e-01 -8.157300000000000662e-02 -5.844369999999999843e-01 1.000640999999999892e+00 -3.590900000000000342e-02 1.721000000000000090e-03 1.765247000000000011e+00 -6.089940000000000353e-01 -8.449999999999999178e-03 -1.128589999999999982e+00 -1.242753999999999914e+00 1.723220000000000030e-01 -5.481080000000000396e-01 1.288537000000000043e+00 1.120036000000000032e+00 2.728399999999999923e-02 -1.326108000000000064e+00 -1.725036999999999932e+00 -1.158867000000000091e+00 8.000829999999999886e-01 -6.366270000000000540e-01 6.065519999999999801e-01 -4.668479999999999852e-01 8.445169999999999622e-01 1.310364000000000084e+00 -5.645390000000000130e-01 1.381882000000000055e+00 -1.161003999999999925e+00 7.174449999999999994e-01 5.786219999999999697e-01 7.858900000000000607e-02 -2.897299999999999875e-02 -9.514679999999999804e-01 -4.005739999999999856e-01 -1.070805999999999925e+00 -7.612199999999999522e-02 3.631010000000000071e-01 1.634338000000000068e+00 2.298749999999999960e-01 3.002469999999999861e-01 1.458970000000000100e+00 -5.752690000000000303e-01 8.070950000000000069e-01 7.943080000000000140e-01 -1.458699999999999927e-02 -4.030099999999999794e-01 -8.307560000000000500e-01 1.345540000000000069e-01 6.158799999999999830e-01 -4.847029999999999950e-01 -6.832420000000000160e-01 7.965590000000000170e-01 -5.995110000000000161e-01 -7.060800000000000409e-02 9.084269999999999845e-01 -2.276999999999999944e-03 -1.725049000000000055e+00 -1.100550000000000000e-01 -4.444899999999999962e-01 8.007119999999999793e-01 -9.859080000000000066e-01 -1.155889999999999973e-01 -4.938440000000000052e-01 -1.765009999999999912e-01 -5.782169999999999810e-01 2.960131000000000068e+00 -5.476119999999999877e-01 5.774650000000000061e-01 -8.125799999999999690e-02 -8.774450000000000305e-01 5.951119999999999743e-01 6.940819999999999768e-01 -5.395910000000000428e-01 1.055037000000000003e+00 -1.607379999999999920e-01 4.127290000000000125e-01 -4.653459999999999819e-01 -1.289563000000000015e+00 3.531200000000000311e-02 7.109760000000000524e-01 5.492420000000000080e-01 8.208450000000000468e-01 1.202550000000000008e-01 -4.034849999999999826e-01 2.065539999999999876e-01 -6.254509999999999792e-01
-1.434614000000000056e+00 1.470090000000000008e-01 -1.033430000000000071e+00 1.563460000000000127e-01 -6.836719999999999464e-01 -2.398699999999999999e-01 2.193058000000000174e+00 -1.760558000000000067e+00 8.711109999999999687e-01 -5.151970000000000161e-01 4.124769999999999825e-01 -4.880090000000000261e-01 -2.570890000000000120e-01 1.007060000000000066e+00 3.718620000000000259e-01 1.334629999999999983e-01 -2.641519999999999979e-01 -1.128206999999999960e+00 2.092410000000000103e-01 -1.055169999999999997e-01 1.849189999999999889e+00 -8.450729999999999631e-01 1.200588999999999906e+00 1.169205000000000050e+00 1.869472000000000023e+00 -2.088813000000000031e+00 -1.083709999999999951e+00 -1.321849999999999969e-01 3.119489999999999763e-01 5.862190000000000456e-01 1.811069999999999902e-01 -1.309130000000000016e-01 -2.465620000000000034e-01 1.168374999999999941e+00 1.147035999999999945e+00 -9.623199999999999810e-02 -4.906670000000000198e-01 -9.687999999999999390e-02 -4.168999999999999928e-01 -3.051721000000000128e+00 -1.413183999999999996e+00 -2.507527000000000061e+00 8.338299999999999879e-02 -6.735659999999999981e-01 2.730920000000000014e-01 6.082140000000000324e-01 1.678510000000000002e-01 -2.206410000000000038e-01 -1.944619999999999960e-01 -3.288800000000000057e-01 3.834400000000000031e-01 -8.442760000000000264e-01 6.452820000000000222e-01 -2.285550000000000082e-01 -5.266210000000000058e-01 -7.059600000000000597e-02 -1.135820000000000024e-01 -2.268020000000000036e-01 -3.857809999999999850e-01 -2.793010000000000215e-01 6.070360000000000200e-01 -4.528900000000000287e-02 5.123020000000000351e-01 -1.465313000000000088e+00 1.879094999999999960e+00 1.182317000000000062e+00 1.244609999999999994e+00 -1.130649999999999988e-01 -2.541039999999999965e-01 1.191259999999999986e+00 6.529390000000000471e-01 -7.728920000000000234e-01 1.812630000000000075e-01 -1.557449999999999946e-01 -1.055536999999999948e+00 1.270840000000000025e-01 -1.334832000000000019e+00 8.336080000000000156e-01 -1.016529000000000016e+00 -6.622019999999999573e-01 1.108098000000000027e+00 1.300537000000000054e+00 5.308699999999999530e-01 1.264470999999999901e+00 1.016539999999999944e-01 8.726819999999999578e-01 6.611599999999999422e-02 -3.555539999999999812e-01 1.338805999999999941e+00 -3.059689999999999910e-01
3.064959999999999907e-01 -8.395359999999999490e-01 7.075369999999999715e-01 -2.001393000000000200e+00 2.764799999999999897e-02 -9.317910000000000359e-01 -3.450619999999999798e-01 6.289390000000000258e-01 -2.174310000000000132e-01 5.692169999999999730e-01 -1.134414999999999951e+00 4.938379999999999992e-01 5.504240000000000244e-01 -6.641470000000000429e-01 -2.034011000000000013e+00 3.004820000000000269e-01 -9.894119999999999582e-01 1.200625999999999971e+00 6.748119999999999674e-01 -6.104439999999999866e-01 -6.972580000000000444e-01 3.714509999999999756e-01 -4.428549999999999986e-01 -7.776500000000000079e-02 -6.651829999999999687e-01 1.341320000000000068e+00 -3.240299999999999847e-01 2.342309999999999948e-01 5.745320000000000427e-01 -2.726219999999999755e-01 1.483902000000000054e+00 -3.717329999999999801e-01 1.181672999999999973e+00 1.587330000000000130e-01 7.156510000000000371e-01 -3.815140000000000198e-01 -5.032100000000000461e-01 -7.892909999999999648e-01 -1.573589999999999989e-01 1.381300000000000028e-01 6.366960000000000397e-01 1.153572999999999960e+00 7.232450000000000268e-01 1.713675000000000059e+00 1.888710000000000111e-01 1.103019999999999973e-01 -7.236200000000000410e-01 1.456372999999999918e+00 9.380830000000000002e-01 -7.126219999999999777e-01 8.773400000000000643e-02 9.421709999999999807e-01 1.842270000000000019e-01 -2.336300000000000043e-01 -6.917290000000000383e-01 5.922020000000000062e-01 5.069679999999999742e-01 -2.728010000000000157e-01 9.377299999999999525e-01 2.414100000000000135e-01 -1.363660000000000094e+00 1.585590000000000055e-01 -6.687939999999999996e-01 4.144999999999999796e-01 5.941539999999999599e-01 -1.499030000000000085e-01 -1.092923000000000089e+00 -1.446679999999999910e-01 -9.232620000000000271e-01 3.656289999999999818e-01 -4.117500000000000326e-02 -7.192880000000000384e-01 -5.454769999999999897e-01 5.367650000000000476e-01 7.495260000000000256e-01 -7.158100000000000573e-02 -9.509480000000000155e-01 2.651930000000000121e-01 -1.659829999999999917e-01 3.301720000000000210e-01 -4.926929999999999921e-01 -9.956800000000000372e-02 3.352879999999999749e-01 3.363570000000000171e-01 1.519600000000000117e-01 -2.555580000000000074e-01 -1.007799999999999946e-01 -6.151980000000000226e-01 -6.371339999999999781e-01 -1.875469999999999915e-01
1.069825000000000026e+00 -5.524719999999999631e-01 9.022160000000000180e-01 6.809199999999999975e-02 -2.427900000000000058e-01 -7.048609999999999598e-01 2.432500999999999802e+00 6.094330000000000025e-01 1.338090000000000113e-01 -3.816030000000000255e-01 2.807000000000000033e-03 -1.407299000000000078e+00 6.380299999999999860e-02 -4.605540000000000189e-01 -1.510135000000000005e+00 1.643421999999999938e+00 -2.770929999999999782e-01 2.762459999999999916e-01 1.591121999999999925e+00 -1.132630000000000026e+00 6.954399999999999471e-02 8.887580000000000480e-01 -2.852319999999999856e-01 -2.666281999999999819e+00 -3.387376999999999860e+00 -2.504589999999999872e-01 2.905909999999999882e-01 1.078410000000000063e-01 -1.223211000000000048e+00 -7.123319999999999652e-01 -2.394066000000000027e+00 3.200000000000000262e-04 -2.998580000000000134e-01 1.040670000000000067e-01 -6.476140000000000230e-01 3.406449999999999756e-01 1.776499000000000050e+00 2.171501999999999821e+00 2.138529000000000124e+00 -1.749555999999999889e+00 1.511869999999999881e-01 5.686000000000000082e-02 8.074930000000000163e-01 -1.575789999999999969e-01 1.197395999999999905e+00 1.159553999999999974e+00 4.906780000000000030e-01 1.953769999999999951e-01 -6.690699999999999426e-02 9.182620000000000227e-01 -5.558980000000000032e-01 -5.841570000000000373e-01 -7.320729999999999738e-01 9.785220000000000029e-01 -1.749479999999999924e-01 1.221743999999999941e+00 -1.550070000000000059e-01 -3.054000000000000117e-02 1.653769999999999962e-01 -5.744650000000000034e-01 -1.141680000000000056e-01 5.059150000000000036e-01 6.564889999999999892e-01 -5.389899999999999691e-01 -1.553528000000000020e+00 5.004619999999999624e-01 -6.694890000000000008e-01 -7.300539999999999807e-01 9.410499999999999421e-02 -1.461224999999999996e+00 -2.983959999999999946e-01 -3.615349999999999953e-01 5.190129999999999466e-01 9.844410000000000105e-01 8.843199999999999672e-02 -1.685808999999999891e+00 5.985279999999999490e-01 9.707989999999999675e-01 1.033314000000000066e+00 -2.530994000000000188e+00 -4.845059999999999922e-01 1.188479999999999953e-01 4.811110000000000109e-01 -3.479999999999999760e-01 -1.976860000000000006e-01 1.940954000000000068e+00 -1.290550000000000030e-01 5.236799999999999788e-02 8.324200000000000488e-01 1.019212000000000007e+00
1.081228000000000078e+00 1.603914000000000062e+00 4.221409999999999885e-01 3.164954999999999963e+00 -5.368965000000000209e+00 -3.195828999999999809e+00 4.732169999999999987e-01 -8.102819999999999467e-01 -4.481199999999999767e-02 3.634430000000000160e-01 -7.845699999999999896e-01 -7.882000000000000117e-03 9.229230000000000489e-01 -1.158799999999999934e-02 3.296510000000000273e-01 2.052800000000000111e-02 1.762330000000000008e-01 -2.483700000000000144e-02 -1.139159999999999950e+00 -1.121690000000000048e-01 3.288059999999999872e-01 -3.971390000000000198e-01 1.991640000000000077e-01 1.145790000000000003e-01 9.612800000000000233e-01 1.332481000000000027e+00 -6.680610000000000159e-01 5.816320000000000379e-01 2.140539999999999943e-01 -2.729829999999999757e-01 2.105740000000000112e-01 5.011090000000000266e-01 1.520189999999999875e-01 -8.339299999999999491e-01 9.521499999999999408e-02 1.096133000000000024e+00 2.131079999999999919e-01 -1.780750000000000111e-01 -1.053512000000000004e+00 -3.403999999999999908e-03 1.035266000000000020e+00 -4.590119999999999756e-01 -8.066370000000000484e-01 2.722799999999999873e-02 2.320309999999999873e-01 -1.101250000000000007e-01 -1.380378000000000105e+00 1.718919999999999892e-01 2.278209999999999957e-01 2.288290000000000046e-01 -4.293569999999999887e-01 -2.359868000000000077e+00 4.246908000000000349e+00 3.512875000000000192e+00 -1.582290000000000085e-01 -6.747689999999999522e-01 -8.509050000000000225e-01 3.615769999999999817e-01 2.796660000000000257e-01 -9.410589999999999788e-01 -3.020140000000000047e-01 4.765039999999999831e-01 -2.334799999999999931e-01 1.325119999999999909e-01 -4.002390000000000114e-01 8.724189999999999445e-01 -3.680189999999999850e-01 1.242197999999999913e+00 -5.966930000000000289e-01 4.583990000000000009e-01 7.053500000000000048e-02 8.587500000000000133e-01 -2.995329999999999937e-01 5.182839999999999669e-01 -7.599179999999999824e-01 -1.056683999999999957e+00 -8.603020000000000111e-01 1.835600000000000009e-01 -4.825090000000000212e-01 -4.657330000000000081e-01 4.000870000000000259e-01 -4.553320000000000145e-01 -1.072305000000000064e+00 -7.432900000000000618e-02 3.475559999999999761e-01 -3.525710000000000233e-01 3.233380000000000143e-01 -7.481719999999999482e-01 2.243559999999999999e-01 6.143899999999999917e-01
1.032134000000000107e+00 -1.580133000000000010e+00 -1.322579999999999867e-01 -1.611647000000000052e+00 -2.239790000000000114e-01 -5.988769999999999927e-01 -7.237019999999999564e-01 8.744199999999999751e-01 -1.490420000000000078e-01 2.754229999999999734e-01 3.540309999999999846e-01 -3.100649999999999795e-01 2.421069999999999889e-01 -8.298210000000000308e-01 -1.791846000000000050e+00 2.268699999999999883e-01 -8.458290000000000530e-01 1.574406999999999890e+00 1.521506000000000025e+00 -3.568600000000000105e-01 -1.292022999999999922e+00 -1.188423999999999925e+00 -9.969689999999999941e-01 6.393419999999999659e-01 -8.107189999999999674e-01 1.209894999999999943e+00 -5.018519999999999648e-01 6.354419999999999513e-01 1.159410000000000052e+00 -5.564750000000000529e-01 2.594434000000000129e+00 -7.168229999999999880e-01 7.998739999999999739e-01 5.424520000000000453e-01 4.748640000000000083e-01 -2.436470000000000025e-01 -8.310220000000000384e-01 -6.546149999999999469e-01 -8.915530000000000399e-01 4.449700000000000183e-02 5.421839999999999993e-01 1.687931999999999988e+00 4.469500000000000139e-01 8.309819999999999984e-01 1.139078999999999953e+00 -5.400530000000000053e-01 1.840819999999999956e-01 1.213144999999999918e+00 5.566339999999999621e-01 -6.479009999999999492e-01 -3.651789999999999758e-01 5.382909999999999640e-01 3.100800000000000223e-01 -4.651689999999999992e-01 -7.002429999999999488e-01 7.231630000000000003e-01 -7.063400000000000234e-02 -2.616339999999999777e-01 1.042199000000000098e+00 1.096170000000000061e-01 -2.630628999999999884e+00 2.859599999999999989e-02 -5.485149999999999748e-01 6.309529999999999861e-01 -3.512060000000000182e-01 -3.006909999999999861e-01 -8.769909999999999650e-01 -2.624549999999999939e-01 -8.570349999999999913e-01 2.307510000000000172e+00 -4.464330000000000243e-01 2.324259999999999937e-01 -3.827800000000000091e-01 5.449799999999999783e-02 8.834170000000000078e-01 4.670940000000000092e-01 -8.891740000000000199e-01 9.714369999999999949e-01 -2.161059999999999925e-01 4.479920000000000013e-01 -4.443949999999999845e-01 -1.156481000000000092e+00 4.434730000000000061e-01 7.764649999999999608e-01 3.370710000000000095e-01 1.831309999999999882e-01 2.794500000000000109e-02 -4.689400000000000235e-01 -6.079899999999999888e-02 -5.358279999999999710e-01
4.914040000000000075e-01 6.232919999999999572e-01 -4.277799999999999936e-01 1.341320000000000012e-01 8.394120000000000470e-01 3.860489999999999755e-01 -9.763840000000000297e-01 -8.530259999999999510e-01 5.010109999999999841e-01 -1.194031999999999982e+00 1.660079999999999889e-01 -1.438374999999999959e+00 3.170599999999999807e-02 5.043900000000000050e-01 -2.889760000000000106e-01 -1.107742000000000004e+00 2.239968999999999877e+00 4.782339999999999924e-01 1.277738000000000040e+00 -1.150128000000000039e+00 1.757338000000000067e+00 1.206163000000000096e+00 1.224143999999999899e+00 -1.541023000000000032e+00 -3.552045000000000119e+00 1.916357000000000088e+00 8.970860000000000500e-01 2.803309999999999969e-01 3.162019999999999831e-01 -4.713200000000000167e-01 4.709439999999999737e-01 -9.086370000000000280e-01 -1.209110000000000046e-01 -4.376880000000000215e-01 9.271999999999999686e-02 -2.430190000000000128e-01 1.923256999999999994e+00 -1.163356000000000057e+00 -1.375787000000000093e+00 -3.292300000000000226e-01 -9.236710000000000198e-01 1.274520000000000097e+00 7.376979999999999649e-01 -8.441629999999999967e-01 8.184800000000000408e-02 -5.906400000000000539e-01 1.861970000000000014e-01 -3.764580000000000148e-01 -3.419269999999999810e-01 1.657470000000000054e-01 1.048100000000000004e-01 4.888730000000000020e-01 -5.478849999999999554e-01 -7.556519999999999904e-01 2.682550000000000212e-01 -1.709880000000000011e-01 6.978490000000000526e-01 -2.700460000000000083e-01 -1.506909999999999916e-01 -6.329559999999999631e-01 6.476039999999999575e-01 -1.465058999999999889e+00 -8.940660000000000274e-01 -1.518500000000000058e-02 -4.206989999999999896e-01 5.181639999999999580e-01 -2.849220000000000086e-01 1.818639999999999979e-01 7.641769999999999952e-01 -2.199059999999999904e-01 -2.472479999999999956e-01 2.588210000000000233e-01 3.412259999999999738e-01 2.667490000000000139e-01 -9.951440000000000285e-01 -6.548580000000000512e-01 2.316330000000000056e-01 -1.472980000000000123e-01 -2.607800000000000049e-02 1.820489999999999886e-01 1.090071000000000012e+00 8.755979999999999874e-01 -1.032869000000000037e+00 -3.285049999999999915e-01 4.337940000000000129e-01 3.725289999999999990e-01 2.035906000000000216e+00 3.919630000000000059e-01 3.691559999999999842e-01 -8.086160000000000014e-01
