7.654614718000000373e+00 0.000000000000000000e+00 0.000000000000000000e+00 2.545850233999999990e+00 6.618767566999999907e+00 0.000000000000000000e+00 0.000000000000000000e+00 0.000000000000000000e+00 2.000000000000000000e+01
8.697829396999999574e+00 0.000000000000000000e+00 0.000000000000000000e+00 -3.739594841999999808e+00 6.477168724000000211e+00 0.000000000000000000e+00 0.000000000000000000e+00 0.000000000000000000e+00 2.000000000000000000e+01
8.451013636000000773e+00 0.000000000000000000e+00 0.000000000000000000e+00 -4.098273010999999855e+00 7.098417579999999560e+00 0.000000000000000000e+00 0.000000000000000000e+00 0.000000000000000000e+00 2.000000000000000000e+01
