7.490160000000000373e+00 2.969990000000000130e+00 9.078739999999999810e+00 2.788460000000000161e+00 4.774670000000000414e+00 1.463729999999999976e+01 4.080079999999999707e+00 6.983099999999999863e-01 9.907270000000000465e+00 3.212390000000000079e+00 4.268500000000000405e+00 1.063610000000000078e+01 2.639159999999999950e+00 2.954460000000000086e+00 1.836730000000000018e+01 1.003570000000000073e+00 1.387939999999999952e+00 1.387040000000000006e+01 5.965970000000000439e+00 3.740400000000000169e+00 1.678890000000000171e+01 3.021900000000000031e+00 6.458980000000000388e+00 1.803480000000000061e+01 6.610179999999999723e+00 4.902269999999999683e+00 1.065429999999999922e+01 3.573409999999999975e+00 2.085830000000000073e+00 1.238569999999999993e+01 9.544950000000000045e+00 5.324600000000000222e+00 8.497120000000000672e+00 6.522359999999999935e+00 1.170020000000000060e+00 7.497080000000000410e+00 2.392230000000000079e+00 5.990129999999999733e+00 1.249680000000000035e+01 2.146790000000000198e+00 1.016900000000000026e-01 1.584159999999999968e+01 3.993199999999999861e+00 2.772409999999999819e+00 1.577640000000000065e+01 3.529799999999999827e+00 3.180260000000000087e+00 8.206649999999999778e+00 7.753639999999999866e+00 2.547039999999999971e+00 1.867000000000000171e+01 7.644210000000000171e+00 3.802810000000000024e+00 1.405429999999999957e+01 4.574360000000000426e+00 4.734829999999999650e+00 1.940360000000000085e+01 8.683170000000000499e+00 5.178819999999999979e+00 1.678529999999999944e+01
1.342440000000000078e+00 1.615669999999999940e+00 1.163710000000000022e+01 3.077300000000000035e-01 4.791660000000000252e+00 1.193880000000000052e+01 5.731329999999999814e+00 2.077719999999999789e+00 1.149039999999999928e+01 4.025319999999999787e+00 4.916089999999999627e+00 1.097400000000000020e+01 3.444069999999999965e+00 1.521290000000000031e+00 1.507169999999999987e+01 -8.803999999999999326e-02 2.281839999999999868e+00 1.565010000000000012e+01 2.340980000000000061e+00 5.290549999999999642e+00 1.648880000000000123e+01 -2.185480000000000089e+00 5.085189999999999877e+00 1.587770000000000081e+01 8.043599999999999639e+00 7.062399999999999789e-01 9.874629999999999797e+00 -2.178100000000000147e+00 4.158350000000000435e+00 1.035030000000000072e+01 3.649719999999999853e+00 4.512999999999999790e-01 1.046160000000000068e+01 2.054499999999999993e+00 3.658900000000000041e+00 9.885709999999999553e+00 1.820100000000000051e+00 5.140999999999999737e-02 1.371010000000000062e+01 -9.125499999999999723e-01 2.513900000000000023e+00 1.337909999999999933e+01 1.663040000000000074e+00 6.179330000000000211e+00 1.358750000000000036e+01 3.597309999999999786e+00 4.105059999999999931e+00 1.382240000000000002e+01 4.684219999999999828e+00 6.321760000000000268e+00 1.715950000000000131e+01 6.195809999999999818e+00 2.537380000000000191e+00 1.681109999999999971e+01 1.445200000000000096e-01 6.158109999999999751e+00 1.731210000000000093e+01 2.111270000000000202e+00 2.736920000000000019e+00 1.707239999999999824e+01
2.594949999999999868e+00 1.001239999999999908e+00 1.145850000000000080e+01 -3.285699999999999732e-01 4.095629999999999882e+00 1.033709999999999951e+01 6.719299999999999606e+00 1.447689999999999921e+00 1.163850000000000051e+01 4.801079999999999792e+00 4.449959999999999916e+00 9.848440000000000083e+00 1.800079999999999902e+00 1.191349999999999909e+00 1.607479999999999976e+01 5.224999999999999645e-01 4.733539999999999637e+00 1.671730000000000160e+01 6.414930000000000021e+00 1.078289999999999971e+00 1.660300000000000153e+01 4.180539999999999701e+00 4.504909999999999748e+00 1.640220000000000056e+01 -3.745929999999999982e+00 7.072330000000000005e+00 1.011739999999999995e+01 -1.562449999999999894e+00 3.015420000000000211e+00 8.334550000000000125e+00 7.193100000000000049e-01 7.013359999999999594e+00 1.052669999999999995e+01 2.354179999999999939e+00 3.629929999999999879e+00 1.022199999999999953e+01 7.289900000000000269e+00 2.176899999999999946e-01 1.418640000000000079e+01 -2.017879999999999896e+00 4.395999999999999908e+00 1.195700000000000074e+01 -2.266329999999999956e+00 7.028640000000000221e+00 1.385180000000000078e+01 2.059239999999999959e+00 5.224739999999999718e+00 1.447920000000000051e+01 -3.785480000000000178e+00 6.935299999999999798e+00 1.795370000000000132e+01 -1.957419999999999938e+00 3.626160000000000050e+00 1.611479999999999890e+01 4.267409999999999926e+00 2.529699999999999727e-01 1.796010000000000062e+01 2.407369999999999788e+00 2.968379999999999797e+00 1.779329999999999856e+01
