8.408463538999999543e+00 0.000000000000000000e+00 0.000000000000000000e+00 -3.987527081000000084e+00 6.906599989000000051e+00 0.000000000000000000e+00 0.000000000000000000e+00 0.000000000000000000e+00 2.000000000000000000e+01
8.138465087000000153e+00 0.000000000000000000e+00 0.000000000000000000e+00 -4.056511972000000021e+00 7.026085334000000238e+00 0.000000000000000000e+00 0.000000000000000000e+00 0.000000000000000000e+00 2.000000000000000000e+01
8.362877619000000706e+00 0.000000000000000000e+00 0.000000000000000000e+00 -4.041494800999999804e+00 7.000074828999999887e+00 0.000000000000000000e+00 0.000000000000000000e+00 0.000000000000000000e+00 2.000000000000000000e+01
8.513067125999999263e+00 0.000000000000000000e+00 0.000000000000000000e+00 -4.082325098000000096e+00 7.070794981999999784e+00 0.000000000000000000e+00 0.000000000000000000e+00 0.000000000000000000e+00 2.000000000000000000e+01
8.470321268999999376e+00 0.000000000000000000e+00 0.000000000000000000e+00 -3.982839918999999895e+00 6.898481585999999943e+00 0.000000000000000000e+00 0.000000000000000000e+00 0.000000000000000000e+00 2.000000000000000000e+01
8.017760005999999606e+00 0.000000000000000000e+00 0.000000000000000000e+00 -4.220892389000000300e+00 7.310800587000000128e+00 0.000000000000000000e+00 0.000000000000000000e+00 0.000000000000000000e+00 2.000000000000000000e+01
8.285417611999999821e+00 0.000000000000000000e+00 0.000000000000000000e+00 -4.275409627000000157e+00 7.405227220999999638e+00 0.000000000000000000e+00 0.000000000000000000e+00 0.000000000000000000e+00 2.000000000000000000e+01
8.310805835000000030e+00 0.000000000000000000e+00 0.000000000000000000e+00 -4.242150084999999571e+00 7.347620000000000040e+00 0.000000000000000000e+00 0.000000000000000000e+00 0.000000000000000000e+00 2.000000000000000000e+01
8.229265397000000704e+00 0.000000000000000000e+00 0.000000000000000000e+00 -4.191770351999999811e+00 7.260359736999999924e+00 0.000000000000000000e+00 0.000000000000000000e+00 0.000000000000000000e+00 2.000000000000000000e+01
7.867966460999999967e+00 0.000000000000000000e+00 0.000000000000000000e+00 -4.246946057999999802e+00 7.355926870000000228e+00 0.000000000000000000e+00 0.000000000000000000e+00 0.000000000000000000e+00 2.000000000000000000e+01
8.290289738000000241e+00 0.000000000000000000e+00 0.000000000000000000e+00 -3.958870861999999935e+00 6.856965957999999972e+00 0.000000000000000000e+00 0.000000000000000000e+00 0.000000000000000000e+00 2.000000000000000000e+01
8.226611674000000818e+00 0.000000000000000000e+00 0.000000000000000000e+00 -4.055459500000000439e+00 7.024262399000000379e+00 0.000000000000000000e+00 0.000000000000000000e+00 0.000000000000000000e+00 2.000000000000000000e+01
8.293897004999999822e+00 0.000000000000000000e+00 0.000000000000000000e+00 -4.155867695999999611e+00 7.198174507000000055e+00 0.000000000000000000e+00 0.000000000000000000e+00 0.000000000000000000e+00 2.000000000000000000e+01
8.331930485999999192e+00 0.000000000000000000e+00 0.000000000000000000e+00 -4.130068995000000243e+00 7.153489843000000015e+00 0.000000000000000000e+00 0.000000000000000000e+00 0.000000000000000000e+00 2.000000000000000000e+01
8.042362993999999432e+00 0.000000000000000000e+00 0.000000000000000000e+00 -4.293522356000000428e+00 7.436599389999999588e+00 0.000000000000000000e+00 0.000000000000000000e+00 0.000000000000000000e+00 2.000000000000000000e+01
8.060598215000000621e+00 0.000000000000000000e+00 0.000000000000000000e+00 -4.209420116999999628e+00 7.290930029000000090e+00 0.000000000000000000e+00 0.000000000000000000e+00 0.000000000000000000e+00 2.000000000000000000e+01
8.257716587999999192e+00 0.000000000000000000e+00 0.000000000000000000e+00 -4.101530462999999571e+00 7.104059652000000114e+00 0.000000000000000000e+00 0.000000000000000000e+00 0.000000000000000000e+00 2.000000000000000000e+01
8.140493647999999638e+00 0.000000000000000000e+00 0.000000000000000000e+00 -4.405548978999999754e+00 7.630635206000000004e+00 0.000000000000000000e+00 0.000000000000000000e+00 0.000000000000000000e+00 2.000000000000000000e+01
8.116140118000000570e+00 0.000000000000000000e+00 0.000000000000000000e+00 -4.188875213000000208e+00 7.255345207000000407e+00 0.000000000000000000e+00 0.000000000000000000e+00 0.000000000000000000e+00 2.000000000000000000e+01
8.123333629999999417e+00 0.000000000000000000e+00 0.000000000000000000e+00 -4.250945862000000020e+00 7.362854732999999818e+00 0.000000000000000000e+00 0.000000000000000000e+00 0.000000000000000000e+00 2.000000000000000000e+01
8.307251096999999973e+00 0.000000000000000000e+00 0.000000000000000000e+00 -4.005517185000000424e+00 6.937759765000000023e+00 0.000000000000000000e+00 0.000000000000000000e+00 0.000000000000000000e+00 2.000000000000000000e+01
8.427295157999999731e+00 0.000000000000000000e+00 0.000000000000000000e+00 -4.042580648999999582e+00 7.001955571999999961e+00 0.000000000000000000e+00 0.000000000000000000e+00 0.000000000000000000e+00 2.000000000000000000e+01
8.024316512000000401e+00 0.000000000000000000e+00 0.000000000000000000e+00 -4.184988882999999937e+00 7.248613887000000311e+00 0.000000000000000000e+00 0.000000000000000000e+00 0.000000000000000000e+00 2.000000000000000000e+01
8.278362895000000776e+00 0.000000000000000000e+00 0.000000000000000000e+00 -4.073024477999999782e+00 7.054685834999999905e+00 0.000000000000000000e+00 0.000000000000000000e+00 0.000000000000000000e+00 2.000000000000000000e+01
8.146124792000000170e+00 0.000000000000000000e+00 0.000000000000000000e+00 -4.132215740000000359e+00 7.157208115999999620e+00 0.000000000000000000e+00 0.000000000000000000e+00 0.000000000000000000e+00 2.000000000000000000e+01
8.541202480999999125e+00 0.000000000000000000e+00 0.000000000000000000e+00 -3.903925865000000162e+00 6.761798425000000279e+00 0.000000000000000000e+00 0.000000000000000000e+00 0.000000000000000000e+00 2.000000000000000000e+01
8.235225749999999678e+00 0.000000000000000000e+00 0.000000000000000000e+00 -4.117991416999999821e+00 7.132570863999999844e+00 0.000000000000000000e+00 0.000000000000000000e+00 0.000000000000000000e+00 2.000000000000000000e+01
8.413783062000000257e+00 0.000000000000000000e+00 0.000000000000000000e+00 -4.351617335000000253e+00 7.537222853000000278e+00 0.000000000000000000e+00 0.000000000000000000e+00 0.000000000000000000e+00 2.000000000000000000e+01
8.834197756000000012e+00 0.000000000000000000e+00 0.000000000000000000e+00 -3.971105833999999835e+00 6.878157553000000313e+00 0.000000000000000000e+00 0.000000000000000000e+00 0.000000000000000000e+00 2.000000000000000000e+01
8.104367957999999206e+00 0.000000000000000000e+00 0.000000000000000000e+00 -4.043093480999999656e+00 7.002843824000000161e+00 0.000000000000000000e+00 0.000000000000000000e+00 0.000000000000000000e+00 2.000000000000000000e+01
8.366044124000000082e+00 0.000000000000000000e+00 0.000000000000000000e+00 -4.134093230999999591e+00 7.160460025999999978e+00 0.000000000000000000e+00 0.000000000000000000e+00 0.000000000000000000e+00 2.000000000000000000e+01
8.207266292999999990e+00 0.000000000000000000e+00 0.000000000000000000e+00 -3.999985925999999914e+00 6.928179344000000128e+00 0.000000000000000000e+00 0.000000000000000000e+00 0.000000000000000000e+00 2.000000000000000000e+01
8.532671289999999686e+00 0.000000000000000000e+00 0.000000000000000000e+00 -3.973412650999999851e+00 6.882153077999999979e+00 0.000000000000000000e+00 0.000000000000000000e+00 0.000000000000000000e+00 2.000000000000000000e+01
8.350743604999999903e+00 0.000000000000000000e+00 0.000000000000000000e+00 -3.984950244999999835e+00 6.902136776999999945e+00 0.000000000000000000e+00 0.000000000000000000e+00 0.000000000000000000e+00 2.000000000000000000e+01
8.071872171000000762e+00 0.000000000000000000e+00 0.000000000000000000e+00 -4.265930413999999615e+00 7.388808741000000069e+00 0.000000000000000000e+00 0.000000000000000000e+00 0.000000000000000000e+00 2.000000000000000000e+01
8.214614906999999633e+00 0.000000000000000000e+00 0.000000000000000000e+00 -4.044656649000000215e+00 7.005551310999999615e+00 0.000000000000000000e+00 0.000000000000000000e+00 0.000000000000000000e+00 2.000000000000000000e+01
8.359075269999999946e+00 0.000000000000000000e+00 0.000000000000000000e+00 -3.895420591999999793e+00 6.747066859000000250e+00 0.000000000000000000e+00 0.000000000000000000e+00 0.000000000000000000e+00 2.000000000000000000e+01
8.336682265000000314e+00 0.000000000000000000e+00 0.000000000000000000e+00 -4.205588567000000388e+00 7.284293587999999708e+00 0.000000000000000000e+00 0.000000000000000000e+00 0.000000000000000000e+00 2.000000000000000000e+01
8.759878627999999168e+00 0.000000000000000000e+00 0.000000000000000000e+00 -3.930778441000000178e+00 6.808308453999999621e+00 0.000000000000000000e+00 0.000000000000000000e+00 0.000000000000000000e+00 2.000000000000000000e+01
8.332883954999999787e+00 0.000000000000000000e+00 0.000000000000000000e+00 -3.944563983000000107e+00 6.832185714999999604e+00 0.000000000000000000e+00 0.000000000000000000e+00 0.000000000000000000e+00 2.000000000000000000e+01
8.543711967000000129e+00 0.000000000000000000e+00 0.000000000000000000e+00 -3.943354482000000161e+00 6.830090798999999713e+00 0.000000000000000000e+00 0.000000000000000000e+00 0.000000000000000000e+00 2.000000000000000000e+01
8.071089699999999922e+00 0.000000000000000000e+00 0.000000000000000000e+00 -4.336086672999999614e+00 7.510322955000000356e+00 0.000000000000000000e+00 0.000000000000000000e+00 0.000000000000000000e+00 2.000000000000000000e+01
8.481083846000000648e+00 0.000000000000000000e+00 0.000000000000000000e+00 -3.844511787000000069e+00 6.658890216999999723e+00 0.000000000000000000e+00 0.000000000000000000e+00 0.000000000000000000e+00 2.000000000000000000e+01
8.166154506999999896e+00 0.000000000000000000e+00 0.000000000000000000e+00 -3.988857612999999969e+00 6.908904538999999900e+00 0.000000000000000000e+00 0.000000000000000000e+00 0.000000000000000000e+00 2.000000000000000000e+01
8.717751420999999112e+00 0.000000000000000000e+00 0.000000000000000000e+00 -3.891887091000000076e+00 6.740946656000000203e+00 0.000000000000000000e+00 0.000000000000000000e+00 0.000000000000000000e+00 2.000000000000000000e+01
8.210981028999999154e+00 0.000000000000000000e+00 0.000000000000000000e+00 -4.030775329999999990e+00 6.981508159999999741e+00 0.000000000000000000e+00 0.000000000000000000e+00 0.000000000000000000e+00 2.000000000000000000e+01
7.786453899999999706e+00 0.000000000000000000e+00 0.000000000000000000e+00 -4.355875806000000239e+00 7.544598739999999637e+00 0.000000000000000000e+00 0.000000000000000000e+00 0.000000000000000000e+00 2.000000000000000000e+01
8.584465079999999304e+00 0.000000000000000000e+00 0.000000000000000000e+00 -4.069335985999999572e+00 7.048297179000000412e+00 0.000000000000000000e+00 0.000000000000000000e+00 0.000000000000000000e+00 2.000000000000000000e+01
8.271814786000000197e+00 0.000000000000000000e+00 0.000000000000000000e+00 -4.153632494000000008e+00 7.194303023999999880e+00 0.000000000000000000e+00 0.000000000000000000e+00 0.000000000000000000e+00 2.000000000000000000e+01
8.726751816000000161e+00 0.000000000000000000e+00 0.000000000000000000e+00 -3.883403262999999939e+00 6.726252233000000302e+00 0.000000000000000000e+00 0.000000000000000000e+00 0.000000000000000000e+00 2.000000000000000000e+01
8.491428601000000853e+00 0.000000000000000000e+00 0.000000000000000000e+00 -3.995113552999999929e+00 6.919740144999999565e+00 0.000000000000000000e+00 0.000000000000000000e+00 0.000000000000000000e+00 2.000000000000000000e+01
8.271431629000000285e+00 0.000000000000000000e+00 0.000000000000000000e+00 -4.228156326999999770e+00 7.323382098999999812e+00 0.000000000000000000e+00 0.000000000000000000e+00 0.000000000000000000e+00 2.000000000000000000e+01
8.394818936000000065e+00 0.000000000000000000e+00 0.000000000000000000e+00 -4.055230421000000085e+00 7.023865621999999753e+00 0.000000000000000000e+00 0.000000000000000000e+00 0.000000000000000000e+00 2.000000000000000000e+01
8.330764703999999909e+00 0.000000000000000000e+00 0.000000000000000000e+00 -4.058630885000000355e+00 7.029755398999999905e+00 0.000000000000000000e+00 0.000000000000000000e+00 0.000000000000000000e+00 2.000000000000000000e+01
8.494193991999999582e+00 0.000000000000000000e+00 0.000000000000000000e+00 -4.314958591999999982e+00 7.473728041000000211e+00 0.000000000000000000e+00 0.000000000000000000e+00 0.000000000000000000e+00 2.000000000000000000e+01
8.136142708999999584e+00 0.000000000000000000e+00 0.000000000000000000e+00 -4.186516217000000317e+00 7.251259307999999848e+00 0.000000000000000000e+00 0.000000000000000000e+00 0.000000000000000000e+00 2.000000000000000000e+01
8.566735809000000756e+00 0.000000000000000000e+00 0.000000000000000000e+00 -3.927244674999999852e+00 6.802187790999999706e+00 0.000000000000000000e+00 0.000000000000000000e+00 0.000000000000000000e+00 2.000000000000000000e+01
8.344779255000000617e+00 0.000000000000000000e+00 0.000000000000000000e+00 -3.941850517000000220e+00 6.827485854999999937e+00 0.000000000000000000e+00 0.000000000000000000e+00 0.000000000000000000e+00 2.000000000000000000e+01
8.396441776999999718e+00 0.000000000000000000e+00 0.000000000000000000e+00 -4.182759693999999584e+00 7.244752818000000261e+00 0.000000000000000000e+00 0.000000000000000000e+00 0.000000000000000000e+00 2.000000000000000000e+01
8.200438240000000434e+00 0.000000000000000000e+00 0.000000000000000000e+00 -4.109241555999999740e+00 7.117415657999999645e+00 0.000000000000000000e+00 0.000000000000000000e+00 0.000000000000000000e+00 2.000000000000000000e+01
7.939950496999999885e+00 0.000000000000000000e+00 0.000000000000000000e+00 -4.141614706000000368e+00 7.173487602999999879e+00 0.000000000000000000e+00 0.000000000000000000e+00 0.000000000000000000e+00 2.000000000000000000e+01
8.605723655000000250e+00 0.000000000000000000e+00 0.000000000000000000e+00 -3.887371469000000079e+00 6.733125367000000416e+00 0.000000000000000000e+00 0.000000000000000000e+00 0.000000000000000000e+00 2.000000000000000000e+01
8.526836504000000261e+00 0.000000000000000000e+00 0.000000000000000000e+00 -3.931163900000000044e+00 6.808976088999999732e+00 0.000000000000000000e+00 0.000000000000000000e+00 0.000000000000000000e+00 2.000000000000000000e+01
8.778616905999999886e+00 0.000000000000000000e+00 0.000000000000000000e+00 -3.931485551000000189e+00 6.809533204000000062e+00 0.000000000000000000e+00 0.000000000000000000e+00 0.000000000000000000e+00 2.000000000000000000e+01
8.420359552000000747e+00 0.000000000000000000e+00 0.000000000000000000e+00 -3.963426446000000158e+00 6.864856461999999659e+00 0.000000000000000000e+00 0.000000000000000000e+00 0.000000000000000000e+00 2.000000000000000000e+01
8.516067533999999384e+00 0.000000000000000000e+00 0.000000000000000000e+00 -4.025792912000000001e+00 6.972878356999999916e+00 0.000000000000000000e+00 0.000000000000000000e+00 0.000000000000000000e+00 2.000000000000000000e+01
7.911998490000000217e+00 0.000000000000000000e+00 0.000000000000000000e+00 -4.064709625999999965e+00 7.040284087999999940e+00 0.000000000000000000e+00 0.000000000000000000e+00 0.000000000000000000e+00 2.000000000000000000e+01
8.001086991999999398e+00 0.000000000000000000e+00 0.000000000000000000e+00 -4.245799891999999964e+00 7.353941651999999607e+00 0.000000000000000000e+00 0.000000000000000000e+00 0.000000000000000000e+00 2.000000000000000000e+01
8.686540488000000337e+00 0.000000000000000000e+00 0.000000000000000000e+00 -4.132258140000000246e+00 7.157281554999999962e+00 0.000000000000000000e+00 0.000000000000000000e+00 0.000000000000000000e+00 2.000000000000000000e+01
8.201004198999999772e+00 0.000000000000000000e+00 0.000000000000000000e+00 -4.009330260999999673e+00 6.944364206999999567e+00 0.000000000000000000e+00 0.000000000000000000e+00 0.000000000000000000e+00 2.000000000000000000e+01
8.671013660999999928e+00 0.000000000000000000e+00 0.000000000000000000e+00 -4.087217639000000347e+00 7.079269112999999614e+00 0.000000000000000000e+00 0.000000000000000000e+00 0.000000000000000000e+00 2.000000000000000000e+01
7.887761449000000091e+00 0.000000000000000000e+00 0.000000000000000000e+00 -4.386180408999999614e+00 7.597087855999999917e+00 0.000000000000000000e+00 0.000000000000000000e+00 0.000000000000000000e+00 2.000000000000000000e+01
8.385275768999999713e+00 0.000000000000000000e+00 0.000000000000000000e+00 -4.032170122000000134e+00 6.983924008999999877e+00 0.000000000000000000e+00 0.000000000000000000e+00 0.000000000000000000e+00 2.000000000000000000e+01
7.646628180000000441e+00 0.000000000000000000e+00 0.000000000000000000e+00 -4.411678844999999960e+00 7.641252446000000198e+00 0.000000000000000000e+00 0.000000000000000000e+00 0.000000000000000000e+00 2.000000000000000000e+01
8.451570044000000337e+00 0.000000000000000000e+00 0.000000000000000000e+00 -4.007260911000000370e+00 6.940779986999999984e+00 0.000000000000000000e+00 0.000000000000000000e+00 0.000000000000000000e+00 2.000000000000000000e+01
8.332410137000000105e+00 0.000000000000000000e+00 0.000000000000000000e+00 -4.049641194000000333e+00 7.014184797000000415e+00 0.000000000000000000e+00 0.000000000000000000e+00 0.000000000000000000e+00 2.000000000000000000e+01
8.165400340999999784e+00 0.000000000000000000e+00 0.000000000000000000e+00 -4.179774888999999938e+00 7.239582984000000110e+00 0.000000000000000000e+00 0.000000000000000000e+00 0.000000000000000000e+00 2.000000000000000000e+01
8.299482678000000391e+00 0.000000000000000000e+00 0.000000000000000000e+00 -4.278493679000000327e+00 7.410568955999999652e+00 0.000000000000000000e+00 0.000000000000000000e+00 0.000000000000000000e+00 2.000000000000000000e+01
8.487523393000000027e+00 0.000000000000000000e+00 0.000000000000000000e+00 -3.925142328999999819e+00 6.798546422000000256e+00 0.000000000000000000e+00 0.000000000000000000e+00 0.000000000000000000e+00 2.000000000000000000e+01
7.959351520000000235e+00 0.000000000000000000e+00 0.000000000000000000e+00 -4.118816804999999803e+00 7.134000477999999923e+00 0.000000000000000000e+00 0.000000000000000000e+00 0.000000000000000000e+00 2.000000000000000000e+01
8.274367427999999691e+00 0.000000000000000000e+00 0.000000000000000000e+00 -4.035763131999999587e+00 6.990147286000000015e+00 0.000000000000000000e+00 0.000000000000000000e+00 0.000000000000000000e+00 2.000000000000000000e+01
7.867475390000000068e+00 0.000000000000000000e+00 0.000000000000000000e+00 -4.257933634999999661e+00 7.374957913000000254e+00 0.000000000000000000e+00 0.000000000000000000e+00 0.000000000000000000e+00 2.000000000000000000e+01
8.208787427000000747e+00 0.000000000000000000e+00 0.000000000000000000e+00 -4.041262220000000127e+00 6.999671987000000151e+00 0.000000000000000000e+00 0.000000000000000000e+00 0.000000000000000000e+00 2.000000000000000000e+01
8.674578549999999666e+00 0.000000000000000000e+00 0.000000000000000000e+00 -3.938387611000000010e+00 6.821487924999999564e+00 0.000000000000000000e+00 0.000000000000000000e+00 0.000000000000000000e+00 2.000000000000000000e+01
8.431837806000000768e+00 0.000000000000000000e+00 0.000000000000000000e+00 -4.076937916000000328e+00 7.061464108000000017e+00 0.000000000000000000e+00 0.000000000000000000e+00 0.000000000000000000e+00 2.000000000000000000e+01
8.390746956999999284e+00 0.000000000000000000e+00 0.000000000000000000e+00 -3.997515459000000160e+00 6.923900369000000055e+00 0.000000000000000000e+00 0.000000000000000000e+00 0.000000000000000000e+00 2.000000000000000000e+01
8.180752304000000308e+00 0.000000000000000000e+00 0.000000000000000000e+00 -3.958612774000000112e+00 6.856518936999999703e+00 0.000000000000000000e+00 0.000000000000000000e+00 0.000000000000000000e+00 2.000000000000000000e+01
8.501859381999999243e+00 0.000000000000000000e+00 0.000000000000000000e+00 -3.885648509000000139e+00 6.730141114000000258e+00 0.000000000000000000e+00 0.000000000000000000e+00 0.000000000000000000e+00 2.000000000000000000e+01
8.615670738000000384e+00 0.000000000000000000e+00 0.000000000000000000e+00 -4.109119336000000011e+00 7.117203968000000103e+00 0.000000000000000000e+00 0.000000000000000000e+00 0.000000000000000000e+00 2.000000000000000000e+01
8.720049639000000852e+00 0.000000000000000000e+00 0.000000000000000000e+00 -3.864461824999999795e+00 6.693444698999999609e+00 0.000000000000000000e+00 0.000000000000000000e+00 0.000000000000000000e+00 2.000000000000000000e+01
8.508218402000000680e+00 0.000000000000000000e+00 0.000000000000000000e+00 -4.184943442999999874e+00 7.248535183000000437e+00 0.000000000000000000e+00 0.000000000000000000e+00 0.000000000000000000e+00 2.000000000000000000e+01
8.806203538000000108e+00 0.000000000000000000e+00 0.000000000000000000e+00 -3.917491372000000194e+00 6.785294573999999912e+00 0.000000000000000000e+00 0.000000000000000000e+00 0.000000000000000000e+00 2.000000000000000000e+01
8.374444599000000267e+00 0.000000000000000000e+00 0.000000000000000000e+00 -4.212941429999999876e+00 7.297029121999999646e+00 0.000000000000000000e+00 0.000000000000000000e+00 0.000000000000000000e+00 2.000000000000000000e+01
7.977931909999999682e+00 0.000000000000000000e+00 0.000000000000000000e+00 -4.048673614000000143e+00 7.012508899000000184e+00 0.000000000000000000e+00 0.000000000000000000e+00 0.000000000000000000e+00 2.000000000000000000e+01
8.307110266000000465e+00 0.000000000000000000e+00 0.000000000000000000e+00 -4.200088137999999915e+00 7.274766565000000185e+00 0.000000000000000000e+00 0.000000000000000000e+00 0.000000000000000000e+00 2.000000000000000000e+01
7.807494699000000260e+00 0.000000000000000000e+00 0.000000000000000000e+00 -4.326575139000000014e+00 7.493848491999999695e+00 0.000000000000000000e+00 0.000000000000000000e+00 0.000000000000000000e+00 2.000000000000000000e+01
8.264748900000000731e+00 0.000000000000000000e+00 0.000000000000000000e+00 -4.008365951000000038e+00 6.942693972999999907e+00 0.000000000000000000e+00 0.000000000000000000e+00 0.000000000000000000e+00 2.000000000000000000e+01
8.243071307999999320e+00 0.000000000000000000e+00 0.000000000000000000e+00 -4.027359780000000278e+00 6.975592252000000215e+00 0.000000000000000000e+00 0.000000000000000000e+00 0.000000000000000000e+00 2.000000000000000000e+01
8.455392162000000766e+00 0.000000000000000000e+00 0.000000000000000000e+00 -4.097549061999999687e+00 7.097163663999999983e+00 0.000000000000000000e+00 0.000000000000000000e+00 0.000000000000000000e+00 2.000000000000000000e+01
8.227367367999999459e+00 0.000000000000000000e+00 0.000000000000000000e+00 -4.023415786000000161e+00 6.968761052999999706e+00 0.000000000000000000e+00 0.000000000000000000e+00 0.000000000000000000e+00 2.000000000000000000e+01
