1.948199999999999932e+00 1.118740000000000068e+00 1.182699999999999996e+01 -7.352000000000000202e-02 4.721639999999999837e+00 1.208600000000000030e+01 6.206789999999999807e+00 1.189040000000000097e+00 1.219490000000000052e+01 4.201340000000000074e+00 4.745289999999999786e+00 1.218539999999999957e+01 -3.235149999999999970e+00 6.375210000000000043e+00 1.696950000000000003e+01 -1.579429999999999890e+00 3.848139999999999894e+00 1.538059999999999938e+01 4.297979999999999912e+00 3.699799999999999756e-01 1.582419999999999938e+01 2.342550000000000132e+00 4.002299999999999969e+00 1.564569999999999972e+01 8.079179999999999140e+00 3.377999999999999753e-02 1.076069999999999993e+01 6.137209999999999610e+00 3.521170000000000133e+00 1.085139999999999993e+01 4.146889999999999965e+00 1.053499999999999992e-01 1.056429999999999936e+01 1.936500000000000110e+00 3.486699999999999910e+00 1.074750000000000050e+01 1.480499999999999872e-01 2.658020000000000049e+00 1.396219999999999928e+01 -1.814720000000000111e+00 6.230000000000000426e+00 1.397770000000000046e+01 4.349619999999999820e+00 2.916230000000000100e+00 1.418720000000000070e+01 2.672950000000000159e+00 6.164670000000000094e+00 1.417750000000000021e+01 7.596529999999999561e+00 1.105890000000000040e+00 1.834169999999999945e+01 5.950440000000000396e+00 2.366130000000000067e+00 1.733149999999999835e+01 4.515600000000000169e-01 4.985019999999999563e+00 1.716319999999999979e+01 2.525929999999999787e+00 1.742099999999999982e+00 1.728440000000000154e+01
2.038330000000000197e+00 1.424819999999999975e+00 1.192190000000000083e+01 7.228999999999999315e-02 4.907479999999999620e+00 1.192450000000000010e+01 6.125149999999999650e+00 1.439279999999999893e+00 1.208510000000000062e+01 4.081750000000000433e+00 5.103919999999999568e+00 1.205160000000000053e+01 7.424000000000000044e-02 1.551599999999999924e-01 1.543410000000000082e+01 -1.390099999999999891e+00 3.418899999999999828e+00 1.608790000000000120e+01 4.077530000000000321e+00 1.229100000000000054e-01 1.563790000000000013e+01 2.667860000000000120e+00 3.351449999999999818e+00 1.611510000000000176e+01 -7.452000000000000290e-02 4.795200000000000018e-01 1.040269999999999939e+01 -2.121809999999999974e+00 3.760419999999999874e+00 1.061560000000000059e+01 4.082650000000000112e+00 4.933699999999999752e-01 1.068650000000000055e+01 2.145880000000000010e+00 3.939239999999999853e+00 1.053100000000000058e+01 2.605399999999999938e-01 2.313470000000000137e+00 1.370049999999999990e+01 -1.723070000000000102e+00 5.903679999999999595e+00 1.392580000000000062e+01 4.510690000000000310e+00 2.367109999999999825e+00 1.421330000000000027e+01 2.085259999999999891e+00 5.674459999999999837e+00 1.439770000000000039e+01 2.186650000000000205e+00 5.448789999999999800e+00 1.885620000000000118e+01 4.432339999999999947e+00 4.555939999999999657e+00 1.784219999999999828e+01 4.772549999999999848e+00 6.174000000000000321e-02 1.823329999999999984e+01 1.835050000000000070e+00 7.605199999999999738e-01 1.719960000000000022e+01
2.178020000000000067e+00 1.440460000000000074e+00 1.221860000000000035e+01 2.231200000000000128e-01 4.966169999999999973e+00 1.214659999999999940e+01 6.164340000000000153e+00 1.400220000000000020e+00 1.188470000000000049e+01 4.305579999999999963e+00 4.873219999999999885e+00 1.183329999999999949e+01 3.247599999999999931e-01 2.607999999999999763e-01 1.663569999999999993e+01 -2.330989999999999895e+00 4.088470000000000049e+00 1.656990000000000052e+01 4.066589999999999705e+00 1.962399999999999978e-01 1.536139999999999972e+01 2.437440000000000051e+00 3.753060000000000063e+00 1.552810000000000024e+01 3.524999999999999661e-02 2.475900000000000045e-01 1.087689999999999912e+01 -1.908900000000000041e+00 3.739930000000000199e+00 1.087490000000000023e+01 4.057640000000000136e+00 2.537499999999999756e-01 1.071320000000000050e+01 2.184229999999999894e+00 3.750739999999999963e+00 1.071490000000000009e+01 3.538200000000000234e-01 2.851890000000000036e+00 1.407259999999999955e+01 -1.781020000000000048e+00 6.093379999999999797e+00 1.379209999999999958e+01 4.340700000000000003e+00 2.415090000000000181e+00 1.405790000000000006e+01 2.372450000000000170e+00 6.051169999999999938e+00 1.385710000000000086e+01 2.771129999999999871e+00 5.192940000000000111e+00 1.745009999999999906e+01 6.307389999999999830e+00 1.874139999999999917e+00 1.771180000000000021e+01 -1.408300000000000107e-01 6.278940000000000410e+00 1.767160000000000153e+01 2.809769999999999879e+00 2.206659999999999844e+00 1.746640000000000015e+01
1.781959999999999988e+00 1.076840000000000019e+00 1.184629999999999939e+01 1.798299999999999899e-01 5.055390000000000050e+00 1.216389999999999993e+01 6.151589999999999669e+00 1.202129999999999921e+00 1.174990000000000023e+01 4.128059999999999619e+00 4.703579999999999650e+00 1.214199999999999946e+01 -3.332609999999999850e+00 6.471140000000000114e+00 1.709339999999999904e+01 -1.572219999999999951e+00 3.862699999999999800e+00 1.562119999999999997e+01 4.111849999999999561e+00 3.175000000000000044e-01 1.540029999999999966e+01 2.159860000000000113e+00 3.890639999999999876e+00 1.577040000000000042e+01 4.278959999999999653e+00 6.974079999999999835e+00 1.055969999999999942e+01 6.357149999999999856e+00 3.723829999999999973e+00 1.112829999999999941e+01 4.159239999999999604e+00 1.106400000000000022e-01 1.062880000000000003e+01 2.113879999999999981e+00 3.765610000000000124e+00 1.081600000000000072e+01 4.290999999999999814e-01 2.771380000000000177e+00 1.408389999999999986e+01 -1.746729999999999894e+00 6.377209999999999823e+00 1.377430000000000021e+01 4.587430000000000341e+00 3.327999999999999847e+00 1.440450000000000053e+01 2.261200000000000099e+00 6.649000000000000021e+00 1.397209999999999930e+01 7.786179999999999879e+00 1.227090000000000014e+00 1.863139999999999930e+01 6.137819999999999609e+00 2.148229999999999862e+00 1.745139999999999958e+01 2.383500000000000063e-01 5.229390000000000427e+00 1.715200000000000102e+01 2.520869999999999944e+00 1.527879999999999905e+00 1.722090000000000032e+01
2.155870000000000175e+00 1.216690000000000049e+00 1.165610000000000035e+01 -2.548000000000000265e-01 4.703120000000000189e+00 1.200810000000000066e+01 6.095919999999999561e+00 7.921399999999999553e-01 1.186580000000000013e+01 4.174140000000000406e+00 4.771499999999999631e+00 1.230209999999999937e+01 -3.330379999999999896e+00 6.327449999999999797e+00 1.735239999999999938e+01 -1.483319999999999972e+00 4.222570000000000157e+00 1.589509999999999934e+01 4.379080000000000084e+00 4.610699999999999799e-01 1.573370000000000068e+01 2.067750000000000199e+00 3.732320000000000082e+00 1.517890000000000050e+01 4.441139999999999866e+00 6.810670000000000002e+00 1.064589999999999925e+01 6.218969999999999665e+00 3.390470000000000095e+00 1.096020000000000039e+01 1.830499999999999905e-01 6.829189999999999650e+00 1.032629999999999981e+01 2.117249999999999854e+00 3.647549999999999848e+00 1.093510000000000026e+01 -8.692999999999999339e-02 2.734469999999999956e+00 1.403500000000000014e+01 -1.665370000000000017e+00 6.451629999999999754e+00 1.372380000000000067e+01 4.570899999999999963e+00 3.112839999999999829e+00 1.438560000000000016e+01 2.385580000000000034e+00 6.308919999999999639e+00 1.397729999999999961e+01 7.618430000000000035e+00 1.112000000000000099e+00 1.875440000000000040e+01 6.091179999999999595e+00 2.140010000000000190e+00 1.747050000000000125e+01 1.111189999999999900e+00 5.097349999999999604e+00 1.717640000000000100e+01 2.495929999999999982e+00 1.599169999999999980e+00 1.713479999999999848e+01
1.593040000000000012e+00 1.488660000000000094e+00 1.189659999999999940e+01 -5.930299999999999461e-01 4.940389999999999837e+00 1.253679999999999950e+01 5.721390000000000420e+00 1.165710000000000024e+00 1.180489999999999995e+01 3.635130000000000194e+00 5.161940000000000417e+00 1.162059999999999960e+01 3.333019999999999872e+00 7.143080000000000318e+00 1.553049999999999997e+01 5.513300000000000090e+00 3.437040000000000095e+00 1.674520000000000053e+01 -7.867800000000000349e-01 7.103489999999999860e+00 1.559130000000000038e+01 1.321439999999999948e+00 2.842799999999999994e+00 1.580860000000000021e+01 7.720469999999999722e+00 2.071900000000000130e-01 1.044560000000000066e+01 5.776550000000000296e+00 3.753690000000000193e+00 1.094880000000000031e+01 -6.764799999999999702e-01 7.178580000000000183e+00 1.088119999999999976e+01 1.381909999999999972e+00 3.734210000000000029e+00 1.075880000000000081e+01 -5.568600000000000216e-01 2.127149999999999874e+00 1.391999999999999993e+01 -3.043050000000000033e+00 5.940760000000000041e+00 1.389020000000000010e+01 3.363890000000000047e+00 2.191349999999999909e+00 1.415489999999999959e+01 9.611899999999999888e-01 5.661089999999999733e+00 1.439039999999999964e+01 3.815020000000000078e+00 3.667469999999999786e+00 1.898880000000000123e+01 1.363169999999999993e+00 6.243999999999999551e-01 1.724599999999999866e+01 5.472889999999999588e+00 6.348799999999999999e-01 1.708320000000000149e+01 2.189680000000000071e+00 4.485120000000000218e+00 1.750850000000000151e+01
1.726909999999999945e+00 1.377760000000000096e+00 1.195880000000000010e+01 -1.087400000000000033e-01 5.129769999999999719e+00 1.197480000000000011e+01 5.762059999999999960e+00 1.575280000000000014e+00 1.159779999999999944e+01 3.851280000000000037e+00 5.237330000000000041e+00 1.193640000000000079e+01 -3.967039999999999900e+00 7.236069999999999780e+00 1.517939999999999934e+01 -1.722550000000000026e+00 4.331120000000000303e+00 1.645289999999999964e+01 5.041269999999999918e+00 3.145000000000000018e-01 1.647550000000000026e+01 2.908570000000000100e+00 3.643260000000000165e+00 1.543099999999999916e+01 8.019940000000000069e+00 4.259899999999999798e-01 1.065530000000000044e+01 -2.247259999999999813e+00 4.129279999999999617e+00 1.062160000000000082e+01 3.752089999999999925e+00 9.862999999999999545e-02 1.083070000000000022e+01 1.971039999999999903e+00 3.968259999999999899e+00 1.081869999999999976e+01 5.190799999999999859e-01 2.353839999999999932e+00 1.428880000000000017e+01 -2.158609999999999918e+00 6.200619999999999798e+00 1.365779999999999994e+01 4.791789999999999772e+00 2.373470000000000191e+00 1.402439999999999998e+01 2.370540000000000092e+00 5.935900000000000176e+00 1.416419999999999924e+01 3.669970000000000176e+00 5.942020000000000302e+00 1.770769999999999911e+01 4.928580000000000183e+00 2.330470000000000041e+00 1.852230000000000132e+01 1.737549999999999928e+00 2.909300000000000219e-01 1.750219999999999843e+01 2.818470000000000031e+00 2.968789999999999818e+00 1.819490000000000052e+01
1.938399999999999901e+00 1.236380000000000035e+00 1.214770000000000039e+01 -3.917999999999999955e-02 5.034939999999999749e+00 1.219730000000000025e+01 5.836759999999999948e+00 1.447079999999999922e+00 1.128940000000000055e+01 3.996010000000000062e+00 5.045779999999999710e+00 1.211110000000000042e+01 6.944000000000000172e-02 1.664899999999999991e-01 1.547569999999999979e+01 -1.966620000000000035e+00 4.062850000000000072e+00 1.591130000000000067e+01 4.711280000000000356e+00 6.653000000000000580e-02 1.579649999999999999e+01 2.507820000000000160e+00 3.296510000000000051e+00 1.548150000000000048e+01 8.122469999999999857e+00 1.899599999999999900e-01 1.085410000000000075e+01 -2.243539999999999868e+00 4.092539999999999623e+00 1.063010000000000055e+01 3.723440000000000083e+00 3.418000000000000205e-02 1.062270000000000003e+01 1.968280000000000030e+00 3.651720000000000077e+00 1.092779999999999951e+01 6.565000000000000002e-02 2.638209999999999944e+00 1.444180000000000064e+01 -2.054679999999999840e+00 6.342900000000000205e+00 1.402410000000000068e+01 4.836359999999999992e+00 2.287790000000000212e+00 1.423670000000000080e+01 2.255510000000000126e+00 5.809160000000000323e+00 1.422749999999999915e+01 4.028330000000000410e+00 6.427730000000000388e+00 1.772960000000000136e+01 5.008820000000000050e+00 3.296400000000000219e+00 1.822670000000000101e+01 -1.097059999999999924e+00 7.342209999999999681e+00 1.780689999999999884e+01 2.953100000000000058e+00 3.297689999999999788e+00 1.812730000000000175e+01
3.372850000000000126e+00 2.578450000000000131e+00 1.151379999999999981e+01 1.717680000000000096e+00 6.259430000000000049e+00 1.213339999999999996e+01 -7.381100000000000438e-01 2.766999999999999904e+00 1.152989999999999959e+01 -2.739599999999999813e+00 6.081100000000000172e+00 1.123620000000000019e+01 2.674420000000000019e+00 5.481729999999999769e+00 1.771590000000000131e+01 5.418639999999999901e+00 4.007340000000000124e+00 1.487989999999999924e+01 -1.308640000000000025e+00 4.796389999999999709e+00 1.818969999999999843e+01 1.156509999999999927e+00 3.701109999999999900e+00 1.523279999999999923e+01 1.303150000000000031e+00 1.389019999999999921e+00 1.046879999999999988e+01 -4.330200000000000160e-01 4.973530000000000229e+00 1.049649999999999928e+01 5.566499999999999559e+00 1.302389999999999937e+00 1.051140000000000008e+01 3.339329999999999909e+00 4.879439999999999777e+00 1.030279999999999951e+01 -8.086799999999999544e-01 2.311890000000000001e+00 1.430250000000000021e+01 -3.349330000000000140e+00 6.246069999999999567e+00 1.380899999999999928e+01 3.249369999999999870e+00 2.203489999999999949e+00 1.411260000000000048e+01 1.147459999999999924e+00 6.116450000000000387e+00 1.460410000000000075e+01 4.924610000000000376e+00 3.254080000000000084e+00 1.727639999999999887e+01 4.243490000000000428e+00 4.498400000000000176e-01 1.759769999999999968e+01 1.842919999999999892e+00 4.114000000000000296e-02 1.759039999999999893e+01 8.214000000000000190e-01 2.993149999999999977e+00 1.780839999999999890e+01
1.614929999999999977e+00 1.331050000000000066e+00 1.204640000000000022e+01 -5.528600000000000181e-01 5.132229999999999848e+00 1.162180000000000035e+01 5.748649999999999594e+00 1.333869999999999889e+00 1.227619999999999933e+01 3.528020000000000156e+00 5.009109999999999729e+00 1.200019999999999953e+01 3.490590000000000082e+00 6.954279999999999795e+00 1.538180000000000014e+01 5.989049999999999763e+00 3.068220000000000169e+00 1.619389999999999930e+01 -3.311600000000000099e-01 7.111309999999999576e+00 1.528040000000000020e+01 1.665780000000000038e+00 3.533150000000000013e+00 1.622269999999999968e+01 3.125989999999999824e+00 7.291059999999999874e+00 1.061090000000000089e+01 5.430430000000000312e+00 3.577310000000000212e+00 1.066569999999999929e+01 3.777299999999999880e+00 2.160900000000000043e-01 1.072339999999999982e+01 1.446890000000000009e+00 3.661430000000000184e+00 1.047000000000000064e+01 5.415999999999999981e-02 2.182199999999999918e+00 1.399660000000000082e+01 -2.369520000000000071e+00 5.448339999999999961e+00 1.405100000000000016e+01 3.763830000000000009e+00 2.232600000000000140e+00 1.417830000000000013e+01 1.538729999999999931e+00 5.701080000000000148e+00 1.392869999999999919e+01 8.537099999999999689e-01 1.130749999999999922e+00 1.712079999999999913e+01 -2.551349999999999785e+00 4.498280000000000278e+00 1.869079999999999941e+01 9.068599999999999994e-01 6.718440000000000190e+00 1.741880000000000095e+01 3.186490000000000045e+00 5.151139999999999830e+00 1.913629999999999853e+01
2.203079999999999927e+00 1.230040000000000022e+00 1.166230000000000011e+01 -1.945199999999999985e-01 4.620940000000000047e+00 1.199220000000000041e+01 6.174699999999999633e+00 1.039600000000000080e+00 1.173760000000000048e+01 4.093180000000000263e+00 4.843560000000000088e+00 1.214000000000000057e+01 4.729800000000000004e+00 6.039220000000000255e+00 1.735109999999999886e+01 -1.585210000000000008e+00 3.882800000000000029e+00 1.556400000000000006e+01 4.317630000000000301e+00 6.410000000000000142e-01 1.584680000000000000e+01 1.995219999999999994e+00 3.726010000000000044e+00 1.579160000000000075e+01 1.737700000000000078e-01 1.383500000000000008e-01 1.055039999999999978e+01 6.090950000000000308e+00 3.501570000000000071e+00 1.068009999999999948e+01 4.129540000000000433e+00 1.038700000000000040e-01 1.032070000000000043e+01 2.044179999999999886e+00 3.770370000000000221e+00 1.070320000000000071e+01 4.098700000000000121e-01 2.629059999999999953e+00 1.398579999999999934e+01 -1.454499999999999904e+00 6.116109999999999935e+00 1.382399999999999984e+01 4.373990000000000045e+00 3.127959999999999852e+00 1.423610000000000042e+01 2.351809999999999956e+00 6.712889999999999802e+00 1.407740000000000080e+01 7.057540000000000369e+00 4.429600000000000204e-01 1.885699999999999932e+01 5.918859999999999566e+00 2.131800000000000139e+00 1.754949999999999832e+01 3.164600000000000191e-01 5.119629999999999903e+00 1.724439999999999884e+01 2.271339999999999915e+00 1.496089999999999920e+00 1.736129999999999995e+01
1.633329999999999949e+00 1.069250000000000034e+00 1.231020000000000003e+01 -2.073299999999999865e-01 4.517369999999999663e+00 1.165820000000000078e+01 5.729009999999999714e+00 1.166730000000000045e+00 1.199220000000000041e+01 3.785860000000000003e+00 4.487790000000000390e+00 1.158699999999999974e+01 1.433599999999999874e-01 8.412600000000000078e-01 1.615129999999999910e+01 -1.720839999999999925e+00 3.592799999999999994e+00 1.696170000000000044e+01 3.984830000000000094e+00 1.197499999999999953e-01 1.543040000000000056e+01 2.213839999999999808e+00 3.893829999999999902e+00 1.527139999999999986e+01 3.837019999999999875e+00 7.000510000000000232e+00 1.078320000000000078e+01 5.902660000000000018e+00 3.289890000000000203e+00 1.035130000000000017e+01 -5.100599999999999579e-01 6.977319999999999744e+00 1.084960000000000058e+01 1.836440000000000072e+00 3.165290000000000159e+00 1.044159999999999933e+01 2.337400000000000033e-01 2.886229999999999851e+00 1.377410000000000068e+01 -2.328399999999999803e+00 6.092590000000000394e+00 1.422180000000000000e+01 4.094780000000000086e+00 2.743759999999999977e+00 1.368030000000000079e+01 2.129249999999999865e+00 6.728690000000000282e+00 1.427260000000000062e+01 -1.447980000000000045e+00 5.647789999999999644e+00 1.961980000000000146e+01 -3.261849999999999916e+00 5.662720000000000198e+00 1.826320000000000121e+01 7.732400000000000384e-01 5.092740000000000045e+00 1.709809999999999874e+01 3.098970000000000002e+00 1.871590000000000087e+00 1.713919999999999888e+01
2.317410000000000192e+00 2.338080000000000158e+00 1.106020000000000003e+01 3.890600000000000169e-01 5.783019999999999605e+00 1.108360000000000056e+01 5.846169999999999867e+00 1.988839999999999941e+00 1.188150000000000084e+01 4.375390000000000335e+00 5.379760000000000097e+00 1.144379999999999953e+01 8.241260000000000474e+00 2.684999999999999887e-02 1.722810000000000130e+01 6.219359999999999999e+00 3.322639999999999816e+00 1.636329999999999885e+01 -2.412900000000000045e-01 6.905310000000000059e+00 1.533580000000000076e+01 1.641599999999999948e+00 3.256880000000000219e+00 1.644259999999999877e+01 4.293799999999999839e-01 8.571999999999999620e-01 1.196390000000000065e+01 -1.616330000000000044e+00 4.183340000000000281e+00 1.047830000000000084e+01 4.309190000000000076e+00 9.724699999999999456e-01 9.663569999999999993e+00 2.167219999999999924e+00 4.599800000000000111e+00 9.687500000000000000e+00 -2.032100000000000017e-01 1.977819999999999911e+00 1.515990000000000038e+01 -2.559719999999999995e+00 5.773530000000000051e+00 1.540160000000000018e+01 3.856889999999999930e+00 3.355230000000000157e+00 1.313330000000000020e+01 1.575190000000000090e+00 6.966809999999999725e+00 1.342689999999999984e+01 1.552259999999999973e+00 5.835460000000000313e+00 1.734280000000000044e+01 -1.345709999999999962e+00 3.232369999999999965e+00 1.910099999999999909e+01 5.705599999999999561e-01 2.021479999999999944e+00 1.888510000000000133e+01 3.950590000000000046e+00 2.004020000000000135e+00 1.696340000000000003e+01
2.078920000000000101e+00 1.154640000000000111e+00 1.164199999999999946e+01 -2.025000000000000133e-01 4.594800000000000217e+00 1.220850000000000080e+01 6.247419999999999973e+00 1.188630000000000075e+00 1.220730000000000004e+01 4.222260000000000346e+00 4.628659999999999997e+00 1.211270000000000024e+01 8.135870000000000601e+00 1.422700000000000076e-01 1.619579999999999842e+01 6.053300000000000125e+00 3.620270000000000099e+00 1.528529999999999944e+01 5.847000000000000114e-02 6.938550000000000217e+00 1.561899999999999977e+01 2.097350000000000048e+00 3.667650000000000077e+00 1.573959999999999937e+01 4.176179999999999559e+00 6.966619999999999813e+00 1.076169999999999938e+01 6.226099999999999746e+00 3.516399999999999970e+00 1.059370000000000012e+01 1.859099999999999919e-01 6.952259999999999884e+00 1.079979999999999940e+01 2.049910000000000121e+00 3.708169999999999966e+00 1.081349999999999945e+01 -1.305199999999999971e-01 2.572140000000000093e+00 1.405690000000000062e+01 -2.178350000000000009e+00 6.046909999999999563e+00 1.398010000000000019e+01 4.067969999999999864e+00 2.428869999999999862e+00 1.402299999999999969e+01 2.251930000000000209e+00 6.021930000000000227e+00 1.401980000000000004e+01 -2.384840000000000071e+00 5.822269999999999612e+00 1.838579999999999970e+01 -1.739109999999999934e+00 3.415189999999999948e+00 1.781700000000000017e+01 2.874830000000000219e+00 5.391899999999999471e-01 1.792279999999999873e+01 2.408399999999999874e+00 4.882450000000000401e+00 1.783510000000000062e+01
2.174519999999999786e+00 1.305330000000000101e+00 1.217360000000000042e+01 9.180000000000000659e-03 5.144250000000000433e+00 1.201789999999999914e+01 6.298429999999999751e+00 1.345390000000000086e+00 1.173160000000000025e+01 4.139639999999999986e+00 5.109479999999999578e+00 1.205209999999999937e+01 3.964490000000000069e+00 7.059389999999999610e+00 1.579410000000000025e+01 6.044590000000000352e+00 2.975270000000000081e+00 1.771630000000000038e+01 -2.257899999999999907e-01 7.223230000000000040e+00 1.555289999999999928e+01 2.194280000000000008e+00 3.591229999999999922e+00 1.539189999999999969e+01 -3.822210000000000107e+00 7.432979999999999698e+00 1.058290000000000042e+01 -1.791209999999999969e+00 3.864479999999999915e+00 1.051479999999999926e+01 -7.310999999999999444e-02 7.397369999999999557e+00 1.070909999999999940e+01 2.160719999999999974e+00 3.856219999999999981e+00 1.072840000000000060e+01 2.088700000000000001e-01 2.083410000000000206e+00 1.391910000000000025e+01 -2.032360000000000166e+00 5.698559999999999626e+00 1.402139999999999986e+01 4.061860000000000248e+00 2.154529999999999834e+00 1.402979999999999983e+01 1.858980000000000077e+00 5.896860000000000213e+00 1.404420000000000002e+01 6.041619999999999990e+00 5.475700000000000012e-01 1.705659999999999954e+01 -2.884720000000000173e+00 5.443740000000000023e+00 1.736769999999999925e+01 3.017689999999999984e+00 1.139489999999999892e+00 1.808079999999999998e+01 1.046110000000000095e+00 2.984070000000000000e+00 1.785170000000000101e+01
2.534060000000000201e+00 2.508599999999999941e+00 1.105710000000000015e+01 -2.292999999999999899e-02 5.914340000000000153e+00 1.220049999999999990e+01 6.677550000000000097e+00 2.374010000000000176e+00 1.133159999999999989e+01 -3.444990000000000219e+00 6.150400000000000311e+00 1.116130000000000067e+01 2.865759999999999863e+00 4.518150000000000333e+00 1.852939999999999898e+01 4.983270000000000088e+00 4.470830000000000304e+00 1.459500000000000064e+01 -3.388399999999999745e-01 5.870800000000000018e+00 1.725949999999999918e+01 9.772199999999999775e-01 3.444630000000000081e+00 1.473550000000000004e+01 4.639800000000000035e-01 1.215659999999999963e+00 1.001440000000000019e+01 -1.536370000000000013e+00 4.754609999999999559e+00 1.007150000000000034e+01 4.707040000000000113e+00 8.490400000000000169e-01 1.072250000000000014e+01 2.246280000000000054e+00 5.028999999999999915e+00 1.062790000000000035e+01 -1.366330000000000044e+00 2.434610000000000163e+00 1.403619999999999912e+01 -2.350150000000000183e+00 6.750149999999999650e+00 1.350140000000000029e+01 3.250649999999999817e+00 2.400790000000000202e+00 1.379250000000000043e+01 1.151389999999999914e+00 5.958190000000000097e+00 1.475980000000000025e+01 5.270080000000000098e+00 4.689770000000000216e+00 1.720370000000000132e+01 2.797019999999999840e+00 6.851770000000000138e+00 1.995429999999999993e+01 4.818679999999999630e+00 1.924599999999999922e-01 1.905799999999999983e+01 1.116980000000000084e+00 3.308040000000000092e+00 1.740930000000000177e+01
2.319220000000000059e+00 2.150920000000000165e+00 1.110270000000000046e+01 7.331999999999999629e-02 5.601300000000000168e+00 1.083689999999999998e+01 5.856440000000000090e+00 1.939929999999999932e+00 1.164780000000000015e+01 4.041529999999999845e+00 5.338630000000000209e+00 1.134939999999999927e+01 5.942999999999999672e-02 9.503999999999999948e-02 1.701980000000000004e+01 6.251870000000000260e+00 3.314210000000000100e+00 1.656200000000000117e+01 1.535999999999999865e-01 7.037899999999999601e+00 1.567639999999999922e+01 1.856049999999999978e+00 3.274910000000000210e+00 1.684390000000000143e+01 1.395000000000000129e-01 7.518799999999999928e-01 1.182970000000000077e+01 -2.121490000000000098e+00 4.126299999999999635e+00 1.015150000000000041e+01 4.297850000000000392e+00 9.304299999999999793e-01 9.714389999999999858e+00 2.181719999999999882e+00 4.417430000000000412e+00 9.549799999999999400e+00 -9.321999999999999731e-02 2.239320000000000199e+00 1.511650000000000027e+01 -2.229470000000000063e+00 5.757909999999999862e+00 1.546679999999999922e+01 3.677029999999999799e+00 3.277530000000000054e+00 1.308099999999999952e+01 1.112249999999999961e+00 6.670729999999999826e+00 1.310500000000000043e+01 1.884079999999999977e+00 5.864919999999999689e+00 1.749549999999999983e+01 -1.011090000000000044e+00 3.164060000000000095e+00 1.908549999999999969e+01 8.268100000000000449e-01 1.825420000000000043e+00 1.910180000000000078e+01 4.090029999999999610e+00 2.017319999999999780e+00 1.721869999999999834e+01
1.808240000000000069e+00 1.534040000000000070e+00 1.227389999999999937e+01 -4.220900000000000207e-01 5.462100000000000399e+00 1.208220000000000027e+01 5.662480000000000402e+00 1.659780000000000033e+00 1.201210000000000022e+01 3.481219999999999981e+00 5.400439999999999685e+00 1.156170000000000009e+01 -4.104630000000000223e+00 7.258160000000000167e+00 1.527439999999999998e+01 -2.098720000000000141e+00 3.733220000000000205e+00 1.621709999999999852e+01 -1.991000000000000061e-02 7.295449999999999768e+00 1.617520000000000024e+01 2.332790000000000141e+00 3.591369999999999951e+00 1.557850000000000001e+01 -2.203900000000000026e-01 5.132200000000000095e-01 1.073789999999999978e+01 5.695260000000000211e+00 3.952490000000000059e+00 1.068960000000000043e+01 3.573339999999999961e+00 2.465199999999999891e-01 1.068629999999999924e+01 1.301350000000000007e+00 3.813079999999999803e+00 1.069069999999999965e+01 3.088400000000000034e-01 2.200489999999999835e+00 1.430910000000000082e+01 -2.014440000000000008e+00 6.121459999999999901e+00 1.424920000000000009e+01 4.273019999999999818e+00 2.059759999999999813e+00 1.420330000000000048e+01 1.960630000000000095e+00 5.782460000000000377e+00 1.386430000000000007e+01 7.251949999999999896e+00 8.090999999999999581e-02 1.756400000000000006e+01 6.095909999999999940e+00 1.742150000000000087e+00 1.855000000000000071e+01 3.010279999999999845e+00 1.511770000000000058e+00 1.775130000000000052e+01 3.864959999999999951e+00 4.620669999999999611e+00 1.747510000000000119e+01
2.175139999999999851e+00 1.202660000000000062e+00 1.191230000000000011e+01 -4.313999999999999779e-02 4.709830000000000183e+00 1.218759999999999977e+01 6.203030000000000044e+00 1.037250000000000005e+00 1.214620000000000033e+01 4.012050000000000338e+00 4.823269999999999946e+00 1.203669999999999973e+01 -3.522600000000000176e+00 7.127600000000000158e+00 1.651699999999999946e+01 6.124240000000000350e+00 3.239139999999999908e+00 1.524080000000000013e+01 2.945699999999999985e-01 6.547310000000000407e+00 1.611120000000000019e+01 2.320539999999999825e+00 3.050520000000000120e+00 1.560670000000000002e+01 -4.136529999999999596e+00 7.186169999999999725e+00 1.056719999999999970e+01 6.067580000000000418e+00 3.517619999999999969e+00 1.078570000000000029e+01 2.820000000000000024e-03 7.104449999999999932e+00 1.064610000000000056e+01 1.946239999999999970e+00 3.567050000000000054e+00 1.065680000000000049e+01 9.606000000000000649e-02 1.782149999999999901e+00 1.406530000000000058e+01 -1.976259999999999906e+00 5.583210000000000228e+00 1.395570000000000022e+01 4.165339999999999598e+00 1.744459999999999900e+00 1.401479999999999926e+01 1.995789999999999953e+00 5.580519999999999925e+00 1.385200000000000031e+01 4.609289999999999665e+00 2.702420000000000044e+00 1.870609999999999928e+01 -1.598819999999999908e+00 3.776130000000000209e+00 1.776279999999999859e+01 2.753200000000000092e+00 1.281930000000000014e+00 1.758119999999999905e+01 2.710500000000000131e+00 5.221499999999999808e+00 1.728310000000000102e+01