-6.903412975000000529e+01
-6.792696109999999976e+01
-6.750413693000000137e+01
-6.923379362999999387e+01
-6.956978198000000191e+01
-6.892343040000000087e+01
-6.713878103999999780e+01
-6.636162505999999439e+01
-6.860533646999999746e+01
-6.690416535999999326e+01
-6.944591135000000293e+01
-6.882488671999999497e+01
-6.927584251000000393e+01
-6.788939456999999322e+01
-6.774909413999999686e+01
-6.876049367000000245e+01
-6.968748506999999393e+01
-6.715495507999999347e+01
-6.820609278999999958e+01
-6.779005659000000605e+01
-6.763110921000000531e+01
-6.795400943999999299e+01
-6.800997268999999790e+01
-6.962041981999999507e+01
-6.799959762000000296e+01
-6.985515159000000551e+01
-6.654470517999999402e+01
-6.784813368000000366e+01
-6.863950493000000108e+01
-6.900054321000000357e+01
-6.950677389999999889e+01
-6.895557784999999740e+01
-6.967673109000000409e+01
-6.856637259000000029e+01
-6.820660191999999711e+01
-6.784134428999999500e+01
-6.982637997000000496e+01
-6.825673208000000614e+01
-6.963881843000000060e+01
-6.743619621999999936e+01
-6.962217538999999533e+01
-6.878632240999999681e+01
-6.778434124999999710e+01
-6.907844977999999969e+01
-6.897723575999999923e+01
-6.795284300999999516e+01
-6.743908224000000473e+01
-6.990636589999999728e+01
-6.812648649000000489e+01
-6.922225428999999508e+01
-6.967752853000000357e+01
-6.684441339999999343e+01
-6.741722149000000286e+01
-6.846855499999999495e+01
-6.835327845000000480e+01
-6.823259043000000190e+01
-6.927938487000000123e+01
-6.954541367000000207e+01
-6.747486426000000392e+01
-6.967980996999999377e+01
-6.850232830000000206e+01
-6.949559333999999922e+01
-6.897167729999999608e+01
-6.979487665999999990e+01
-6.941939376999999922e+01
-6.993066340000000025e+01
-6.867632328999999913e+01
-6.871840962000000275e+01
-6.674223354999999458e+01
-6.894534613999999806e+01
-6.761654287000000352e+01
-6.808345176999999637e+01
-6.927587975000000142e+01
-6.769469204000000673e+01
-6.829625808000000120e+01
-6.975588788999999679e+01
-6.817512901000000625e+01
-6.803736447999999370e+01
-6.966546599000000128e+01
-6.822893618000000515e+01
-6.937965486999999598e+01
-6.808546948000000043e+01
-6.851273023999999623e+01
-6.849285596999999370e+01
-6.786622348999999588e+01
-6.931014109999999562e+01
-6.709235655999999892e+01
-6.947813902999999414e+01
-6.826242474999999388e+01
-6.963006339999999739e+01
-6.748509968000000470e+01
-6.942156171000000597e+01
-6.672940638000000035e+01
-6.851030860999999561e+01
-6.922658466000000033e+01
-6.784121638999999959e+01
-6.864825052000000483e+01
-6.946668148999999914e+01
-6.782642253999999582e+01
-6.746748660999999458e+01
