-3.559000000000000098e-03 -1.956150000000000111e-01 -3.417379999999999862e-01 -2.325869999999999882e-01 -2.046669999999999878e-01 -3.358180000000000054e-01 -3.700970000000000093e-01 2.701330000000000120e-01 -2.523529999999999940e-01 -5.035950000000000149e-01 -3.660109999999999753e-01 -2.750900000000000012e-01 3.411680000000000268e-01 -6.522200000000000220e-02 -4.339250000000000052e-01 -1.316829999999999945e-01 4.623650000000000260e-01 5.850990000000000357e-01 -6.288399999999999546e-02 1.793410000000000004e-01 9.499299999999999411e-02 -6.438180000000000014e-01 -1.149693999999999994e+00 2.590649999999999897e-01 6.403860000000000108e-01 1.301499999999999879e-01 -3.749629999999999908e-01 4.398710000000000120e-01 1.046109999999999957e-01 2.294300000000000159e-02 -7.001999999999999891e-02 -1.513869999999999938e-01 8.991689999999999960e-01 4.602459999999999885e-01 3.980540000000000189e-01 2.938609999999999833e-01 5.838780000000000081e-01 5.395300000000000096e-02 -4.254490000000000216e-01 4.736159999999999815e-01 2.304640000000000022e-01 -2.276620000000000033e-01 3.404490000000000016e-01 -2.611149999999999860e-01 -2.024440000000000128e-01 -3.604999999999999871e-01 7.650339999999999918e-01 -3.076000000000000175e-03 -1.633320000000000050e-01 3.332309999999999994e-01 5.992009999999999836e-01 -5.575480000000000436e-01 -5.487900000000000000e-01 2.348770000000000024e-01 -1.862560000000000049e-01 2.376739999999999964e-01 3.059699999999999920e-02 6.264999999999999736e-03 -2.225100000000000133e-01 -1.472880000000000023e-01
-5.295680000000000387e-01 3.161919999999999731e-01 -5.836200000000000276e-01 -5.627140000000000475e-01 6.635900000000000132e-02 -5.763620000000000410e-01 4.908569999999999878e-01 5.550570000000000226e-01 -5.478819999999999801e-01 2.255580000000000085e-01 1.736429999999999918e-01 -8.446430000000000327e-01 1.260689999999999866e-01 -4.477590000000000181e-01 -4.307909999999999795e-01 -3.670359999999999734e-01 2.963689999999999936e-01 -3.388000000000000039e-02 -1.392649999999999999e-01 -2.840230000000000254e-01 -9.566500000000000004e-02 -6.098200000000000148e-02 5.873899999999999955e-02 3.709100000000000175e-01 1.910229999999999984e-01 -5.724799999999999889e-01 9.854199999999999626e-01 2.850420000000000176e-01 2.607650000000000245e-01 6.894909999999999650e-01 1.797499999999999931e-01 -8.981219999999999759e-01 1.346289999999999987e-01 -7.335400000000000253e-02 -2.394169999999999909e-01 7.900500000000000300e-01 -1.559899999999999898e-01 1.369370000000000032e-01 3.534200000000000119e-01 -3.201120000000000076e-01 -2.411439999999999972e-01 9.355399999999999827e-02 4.869799999999999823e-02 4.422500000000000042e-02 1.848710000000000075e-01 3.412180000000000213e-01 2.743400000000000005e-02 -5.694899999999999962e-02 3.561309999999999754e-01 -1.121504000000000056e+00 4.605900000000000272e-02 -3.419059999999999877e-01 2.666810000000000014e-01 -4.576589999999999825e-01 1.688540000000000041e-01 7.500909999999999522e-01 -4.646759999999999780e-01 1.377279999999999893e-01 8.519579999999999931e-01 4.437249999999999805e-01
-5.544369999999999576e-01 2.428490000000000093e-01 2.381659999999999888e-01 3.129770000000000052e-01 -1.437420000000000087e-01 5.775419999999999998e-01 1.005349999999999994e-01 -9.128690000000000415e-01 2.906569999999999987e-01 -5.341679999999999762e-01 1.509399999999999978e-02 1.803099999999999981e-01 -2.839700000000000002e-01 7.119109999999999605e-01 1.197880000000000056e-01 2.814360000000000195e-01 7.349240000000000217e-01 -6.166100000000000053e-02 5.775310000000000166e-01 -1.397799999999999876e-01 -2.061389999999999889e-01 -1.072851999999999917e+00 -3.868489999999999984e-01 -2.636111999999999789e+00 2.693600000000000161e-02 7.328780000000000294e-01 -4.183919999999999861e-01 3.674299999999999788e-02 1.771719999999999962e-01 -4.773530000000000273e-01 3.439809999999999812e-01 5.960900000000000226e-02 -2.746640000000000192e-01 1.327409999999999979e-01 -2.831870000000000220e-01 -9.746199999999999308e-02 2.545089999999999852e-01 -1.796949999999999936e-01 3.284100000000000213e-02 -2.952080000000000259e-01 -4.816600000000000048e-02 4.856219999999999981e-01 4.999149999999999983e-01 4.619670000000000165e-01 -4.576230000000000020e-01 -3.021159999999999957e-01 5.696480000000000432e-01 -5.997399999999999953e-02 4.716580000000000217e-01 6.150029999999999664e-01 1.641821999999999893e+00 4.120809999999999751e-01 -8.059079999999999577e-01 -2.704320000000000057e-01 -2.628739999999999966e-01 -2.394959999999999867e-01 1.874059999999999893e-01 -1.454199999999999937e-01 -1.181365999999999916e+00 1.205657999999999896e+00
4.066540000000000155e-01 7.994539999999999980e-01 -1.177350000000000063e-01 -1.335429999999999950e-01 -6.141539999999999777e-01 8.059979999999999922e-01 9.302789999999999671e-01 -1.003219999999999945e-01 4.391430000000000056e-01 1.270560000000000023e-01 3.876180000000000181e-01 1.184960000000000041e-01 -1.394880000000000009e-01 1.600599999999999939e-02 -4.708600000000000285e-02 4.296550000000000091e-01 3.123300000000000035e-02 4.109140000000000015e-01 5.272379999999999844e-01 3.814910000000000245e-01 9.164259999999999629e-01 1.575400000000000064e-02 -5.794139999999999846e-01 3.239859999999999962e-01 -4.302739999999999898e-01 5.415999999999999981e-02 2.935099999999999931e-01 4.887170000000000125e-01 -2.768920000000000270e-01 -4.715019999999999767e-01 -7.580289999999999528e-01 1.921380000000000032e-01 -8.305970000000000297e-01 -2.589839999999999920e-01 -8.190910000000000135e-01 -1.846250000000000113e-01 -2.545430000000000192e-01 4.226480000000000237e-01 -5.600159999999999583e-01 -2.372660000000000047e-01 -2.906170000000000142e-01 4.038699999999999929e-02 -1.025689999999999991e+00 6.198200000000000237e-02 -7.204900000000000193e-02 -2.055339999999999945e-01 1.956320000000000003e-01 -2.579839999999999911e-01 1.016213999999999951e+00 -4.573570000000000135e-01 7.462520000000000264e-01 -1.414981999999999962e+00 1.405990000000000018e-01 -6.693149999999999933e-01 4.894970000000000154e-01 1.295590000000000075e-01 -4.840019999999999878e-01 4.272679999999999811e-01 3.253289999999999793e-01 -4.002020000000000022e-01
-2.705850000000000199e-01 -6.921540000000000470e-01 -5.954999999999999877e-02 7.915400000000000214e-02 -1.829409999999999925e-01 4.719209999999999794e-01 5.859600000000000364e-01 1.059987999999999930e+00 -9.140449999999999964e-01 6.155659999999999465e-01 -3.779850000000000154e-01 -2.782009999999999761e-01 6.169200000000000239e-01 2.220229999999999981e-01 -5.872870000000000035e-01 9.582599999999999452e-02 -1.982089999999999963e-01 4.467499999999999805e-01 8.500699999999999923e-02 -2.860309999999999797e-01 2.707749999999999879e-01 1.293380000000000085e-01 -8.238649999999999585e-01 5.732460000000000333e-01 -8.526400000000000645e-02 2.962929999999999731e-01 3.011600000000000041e-02 -4.416010000000000213e-01 -5.091280000000000250e-01 -2.347869999999999957e-01 -2.974339999999999762e-01 1.760499999999999912e-02 2.024600000000000011e-02 -1.133259999999999962e-01 3.127079999999999860e-01 -2.083389999999999964e-01 1.828220000000000123e-01 5.243719999999999493e-01 -6.508400000000000296e-02 4.013160000000000061e-01 -2.190400000000000125e-01 2.495110000000000106e-01 -5.223609999999999642e-01 4.007189999999999919e-01 -1.719000000000000042e-03 5.840599999999999958e-02 2.301989999999999870e-01 4.851849999999999774e-01 5.574959999999999916e-01 -4.091469999999999829e-01 9.319370000000000154e-01 -7.767220000000000235e-01 5.384299999999999642e-01 -7.101439999999999975e-01 -6.707840000000000469e-01 2.847919999999999896e-01 -2.841210000000000124e-01 -2.297339999999999938e-01 -1.886299999999999921e-01 -1.364100000000000035e-01
4.786299999999999999e-01 -5.965759999999999952e-01 1.302934999999999954e+00 1.366690000000000127e-01 -2.002700000000000036e-01 -7.492950000000000443e-01 -6.867900000000000116e-01 3.384969999999999923e-01 4.385149999999999881e-01 -3.330440000000000067e-01 -5.513679999999999692e-01 9.954100000000000448e-02 -7.413969999999999727e-01 1.884450000000000014e-01 5.401979999999999560e-01 1.029769999999999991e-01 1.103340000000000015e-01 6.686699999999999589e-02 -4.561839999999999784e-01 1.306138999999999939e+00 4.393759999999999888e-01 2.004599999999999993e-01 -2.683369999999999922e-01 -6.921429999999999527e-01 1.068859999999999949e-01 -2.906699999999999839e-01 -4.714490000000000069e-01 -4.597680000000000100e-01 -3.409300000000000108e-01 -7.396570000000000089e-01 2.792649999999999855e-01 2.593360000000000110e-01 1.240710000000000007e-01 6.115300000000000180e-01 1.411985999999999963e+00 -4.874300000000000160e-02 -1.363030000000000075e-01 -1.569770000000000054e-01 -3.605499999999999816e-01 -2.842470000000000274e-01 -3.950290000000000190e-01 -1.858130000000000059e-01 -1.740839999999999888e-01 -4.421129999999999782e-01 -3.520420000000000216e-01 4.128299999999999748e-01 -4.326820000000000110e-01 2.705799999999999872e-02 -1.361400000000000110e-01 -2.570930000000000160e-01 -3.596500000000000252e-01 4.782600000000000184e-01 -8.334470000000000489e-01 1.211150000000000004e-01 3.113839999999999941e-01 -1.279959999999999987e-01 1.889220000000000066e-01 2.890670000000000184e-01 1.278750999999999971e+00 6.107430000000000359e-01
1.789189999999999947e-01 3.726369999999999960e-01 1.095304000000000055e+00 -5.151099999999999568e-01 -1.923340000000000050e-01 4.841329999999999800e-01 3.269020000000000259e-01 6.946039999999999992e-01 5.881200000000000316e-02 1.438293999999999961e+00 7.337089999999999446e-01 5.610979999999999857e-01 8.807009999999999561e-01 6.464330000000000354e-01 1.585398000000000085e+00 -2.707069999999999754e-01 1.425250000000000128e-01 -4.091000000000000018e-03 -3.673930000000000251e-01 -2.089550000000000018e-01 -3.965500000000000275e-02 -3.146639999999999993e-01 -5.055239999999999734e-01 3.485849999999999782e-01 -6.540970000000000395e-01 -6.079649999999999777e-01 -1.830869999999999997e-01 -2.070740000000000081e-01 -5.267370000000000108e-01 -1.817350000000000076e-01 3.335879999999999956e-01 4.314129999999999909e-01 -9.230629999999999669e-01 -5.740399999999999947e-01 -8.535469999999999446e-01 -6.359629999999999450e-01 2.274650000000000005e-01 3.638509999999999800e-01 -4.318259999999999876e-01 1.555600000000000038e-02 -2.547650000000000192e-01 -1.371020000000000016e-01 8.581999999999999351e-02 -3.594100000000000072e-02 6.352799999999999558e-01 -1.087207999999999952e+00 -1.357700000000000018e-01 -9.269539999999999447e-01 6.277570000000000094e-01 2.102430000000000132e-01 -6.622660000000000213e-01 1.538313000000000041e+00 -1.929389999999999994e-01 3.397310000000000052e-01 -4.740190000000000237e-01 -2.982469999999999843e-01 -9.712000000000000147e-03 -1.189003000000000032e+00 2.173090000000000022e-01 -9.728849999999999998e-01
-3.630729999999999791e-01 6.809300000000000075e-02 4.046120000000000272e-01 -3.407430000000000181e-01 -1.977100000000000038e-02 -7.159200000000000286e-02 8.877500000000000668e-02 5.053910000000000347e-01 1.213670000000000027e-01 1.643239999999999978e-01 1.372089999999999976e-01 -9.864699999999999858e-02 3.038620000000000210e-01 -4.588559999999999861e-01 5.688000000000000347e-03 1.893900000000000097e-02 6.900469999999999660e-01 3.489500000000000240e-02 -4.052850000000000064e-01 -3.024180000000000201e-01 1.656380000000000075e-01 -6.713000000000000217e-03 8.757299999999999807e-02 -3.479590000000000183e-01 -2.406689999999999940e-01 -2.016489999999999949e-01 -1.416769999999999974e-01 -2.221800000000000164e-02 -6.121299999999999519e-01 2.553929999999999811e-01 7.018440000000000234e-01 -1.463770000000000071e-01 -2.436419999999999975e-01 5.447699999999999765e-02 6.569000000000000186e-03 -8.009099999999999553e-02 5.447060000000000235e-01 -2.621490000000000209e-01 -6.910199999999999676e-02 -6.368200000000000249e-02 3.960529999999999884e-01 -1.388900000000000030e-02 -6.104920000000000346e-01 2.108430000000000026e-01 -1.501570000000000127e-01 -2.635999999999999888e-03 1.853319999999999967e-01 9.975399999999999545e-02 7.915600000000000414e-02 1.100840000000000013e-01 -6.265999999999999868e-03 5.339053999999999967e+00 -4.232899999999999996e-01 8.962630000000000319e-01 -3.119109999999999938e-01 -1.746969999999999912e-01 -3.301890000000000103e-01 -4.927716000000000207e+00 2.041429999999999911e-01 -4.303989999999999760e-01
3.012259999999999938e-01 -2.980389999999999984e-01 5.671399999999999775e-01 3.928299999999999847e-02 -1.647699999999999998e-01 -8.081610000000000182e-01 4.603999999999999586e-03 -1.345485000000000042e+00 1.230622000000000105e+00 1.344390000000000029e-01 8.858299999999999508e-02 7.949559999999999960e-01 5.999800000000000272e-02 2.193090000000000039e-01 1.816540000000000099e-01 -4.535239999999999827e-01 -5.135189999999999477e-01 -6.127099999999999769e-01 3.176789999999999892e-01 3.446330000000000227e-01 -3.856160000000000143e-01 5.653519999999999657e-01 -1.038284999999999902e+00 -2.928700000000000053e-02 -9.774499999999999855e-02 -2.252989999999999993e-01 -5.084049999999999958e-01 8.482199999999999462e-02 1.336999999999999966e+00 -3.829150000000000054e-01 -2.603289999999999771e-01 -2.761060000000000181e-01 4.297920000000000074e-01 -2.816980000000000040e-01 3.162559999999999816e-01 -1.913219999999999921e-01 -5.792969999999999509e-01 -4.660199999999999759e-02 -1.125952999999999982e+00 3.197220000000000062e-01 2.003359999999999863e-01 -3.916410000000000169e-01 2.306789999999999952e-01 5.366680000000000339e-01 5.718000000000000166e-02 -3.285719999999999752e-01 1.003176999999999985e+00 5.079599999999999671e-01 -1.718349999999999878e-01 -3.543700000000000322e-02 6.623339999999999783e-01 -2.341090000000000115e-01 -4.743769999999999931e-01 -7.096900000000000430e-02 3.224469999999999836e-01 -1.316360000000000030e-01 3.066559999999999842e-01 2.685999999999999846e-02 5.035920000000000396e-01 -2.313149999999999928e-01
4.948299999999999921e-02 2.016469999999999929e-01 -1.150593999999999895e+00 5.180670000000000552e-01 -5.495189999999999797e-01 -1.110479999999999939e-01 3.964299999999999768e-02 3.304300000000000015e-01 -9.022199999999999664e-02 -5.584109999999999907e-01 -2.534190000000000054e-01 -8.620189999999999797e-01 -3.009359999999999813e-01 9.113699999999999579e-02 -1.665550000000000086e-01 -2.648170000000000246e-01 -7.464500000000000302e-02 9.408700000000000396e-02 -8.658010000000000428e-01 2.958479999999999999e-01 -5.832500000000000184e-02 3.416379999999999972e-01 3.797019999999999840e-01 1.342669999999999975e-01 8.101089999999999680e-01 2.361250000000000016e-01 6.473759999999999515e-01 -2.142799999999999983e-01 1.466089999999999893e-01 1.891440000000000066e-01 -6.128620000000000179e-01 2.208239999999999925e-01 2.656680000000000152e-01 3.381430000000000269e-01 1.115909999999999958e-01 8.823309999999999764e-01 -9.253860000000000419e-01 -5.782659999999999467e-01 -4.299229999999999996e-01 1.894000000000000128e-01 5.040989999999999638e-01 3.563350000000000128e-01 3.580360000000000209e-01 -4.593740000000000046e-01 6.291999999999999850e-03 4.145030000000000103e-01 -7.346800000000000552e-02 -3.951819999999999777e-01 2.600250000000000061e-01 -2.506340000000000234e-01 1.095741999999999994e+00 -2.304759999999999864e-01 1.012490000000000057e-01 2.079299999999999898e-02 3.434900000000000175e-01 -9.145000000000000351e-02 9.365400000000000114e-02 3.104339999999999877e-01 -2.884880000000000222e-01 -5.218199999999999505e-01
1.157350000000000045e-01 4.884749999999999925e-01 5.478490000000000304e-01 4.065529999999999977e-01 -3.042900000000000119e-02 1.749940000000000107e-01 1.805199999999999860e-02 3.295409999999999728e-01 -1.000000000000000056e-01 1.907979999999999954e-01 -1.817499999999999949e-01 -1.349579999999999946e-01 8.813720000000000443e-01 -1.513160000000000061e-01 -8.022460000000000147e-01 4.005360000000000031e-01 1.137979999999999964e-01 1.942419999999999980e-01 -2.800739999999999896e-01 -4.748870000000000036e-01 1.340449999999999975e-01 2.536039999999999961e-01 -6.615999999999999659e-01 -5.889699999999999797e-02 -9.628320000000000212e-01 -4.103479999999999905e-01 -8.274700000000000111e-02 -7.749599999999999544e-02 -1.360280000000000100e-01 2.950490000000000057e-01 1.426850000000000063e-01 -2.613960000000000172e-01 1.497920000000000085e-01 2.262959999999999972e-01 -2.062249999999999917e-01 3.014370000000000105e-01 -4.271820000000000062e-01 4.099550000000000138e-01 -1.447120000000000073e-01 -1.606450000000000100e-01 4.914450000000000207e-01 -2.769719999999999960e-01 -5.472770000000000135e-01 2.826779999999999848e-01 3.128099999999999770e-01 3.619020000000000015e-01 -2.044140000000000124e-01 -1.847199999999999953e-01 -7.763299999999999645e-01 7.743539999999999868e-01 2.539440000000000031e-01 1.949800000000000144e-02 -3.335739999999999816e-01 2.665930000000000244e-01 1.899170000000000025e-01 8.036600000000000688e-02 -3.373950000000000005e-01 2.488800000000000040e-02 8.135399999999999576e-02 -5.081090000000000328e-01
-3.121300000000000116e-02 8.602000000000000271e-03 2.689909999999999801e-01 -1.819890000000000119e-01 -5.311059999999999670e-01 -4.327829999999999733e-01 1.071460000000000051e-01 -2.750770000000000159e-01 -3.004970000000000141e-01 4.253609999999999891e-01 -3.262439999999999785e-01 -9.066399999999999459e-02 4.074690000000000256e-01 -2.657610000000000250e-01 2.665620000000000211e-01 1.919099999999999973e-02 -5.486999999999999690e-03 -7.837399999999999922e-02 -1.141725000000000101e+00 -2.845110000000000139e-01 7.257329999999999615e-01 2.242750000000000021e-01 -4.876429999999999931e-01 4.898839999999999861e-01 -1.719860000000000000e-01 -2.379670000000000119e-01 4.030399999999999955e-02 3.191479999999999873e-01 2.962719999999999798e-01 3.647659999999999791e-01 7.689559999999999729e-01 -2.055470000000000075e-01 -2.411880000000000135e-01 -3.949940000000000118e-01 4.081910000000000260e-01 -1.604919999999999958e-01 -5.241540000000000088e-01 -3.937500000000000028e-02 1.326579999999999981e-01 2.992029999999999967e-01 7.140250000000000208e-01 2.743599999999999928e-01 -8.139399999999999413e-02 7.585340000000000416e-01 -8.803900000000000614e-02 6.499629999999999574e-01 1.970600000000000129e-02 -5.913880000000000248e-01 1.460680000000000034e-01 2.461830000000000129e-01 -1.838430000000000064e-01 -3.655220000000000136e-01 -4.309149999999999925e-01 -2.073349999999999915e-01 -2.054930000000000090e-01 2.825259999999999994e-01 3.570429999999999993e-01 -2.683110000000000217e-01 3.555940000000000212e-01 -5.456959999999999589e-01
7.595089999999999897e-01 -3.124560000000000115e-01 -2.142640000000000100e-01 -3.265330000000000177e-01 1.053411000000000097e+00 2.499119999999999953e-01 1.375290000000000123e-01 -2.122819999999999985e-01 -4.590279999999999916e-01 4.739199999999999663e-02 1.671229999999999938e-01 -2.326729999999999909e-01 -4.758910000000000085e-01 -7.927999999999999492e-01 -3.265100000000000224e-01 -2.006300000000000028e-01 3.204879999999999951e-01 9.441840000000000233e-01 7.696009999999999796e-01 2.095779999999999865e-01 1.000788000000000011e+00 5.166650000000000409e-01 6.738579999999999570e-01 1.019752999999999910e+00 -5.684109999999999996e-01 -2.704099999999999837e-01 -1.337270000000000125e-01 -2.840460000000000207e-01 3.276729999999999920e-01 6.133500000000000063e-02 1.313199999999999958e-02 -4.574999999999999900e-02 9.949090000000000433e-01 8.289290000000000269e-01 -1.150400000000000034e-01 -5.614299999999999846e-02 -3.017540000000000222e-01 -6.571499999999999564e-02 -5.535430000000000073e-01 -3.178050000000000042e-01 -1.937570000000000126e-01 3.425700000000000273e-02 -2.130440000000000111e-01 -2.527499999999999886e-02 -6.176100000000000340e-02 -3.190089999999999870e-01 -6.175810000000000466e-01 -6.778290000000000148e-01 -1.163410000000000000e-01 -3.006929999999999881e-01 -7.134690000000000198e-01 -7.889650000000000274e-01 3.885159999999999725e-01 -6.251259999999999595e-01 1.034019000000000021e+00 1.386499999999999955e-01 2.522869999999999835e-01 -1.943479999999999930e-01 -3.275379999999999958e-01 -5.033520000000000216e-01
2.427219999999999933e-01 -1.514089999999999880e-01 -4.778729999999999922e-01 2.614679999999999782e-01 3.872720000000000051e-01 -4.514839999999999964e-01 2.152110000000000134e-01 -3.991850000000000120e-01 -5.942749999999999977e-01 -1.029439999999999938e-01 3.036769999999999747e-01 -1.066909999999999942e-01 -1.185849999999999960e-01 -3.544649999999999745e-01 3.282919999999999727e-01 3.203719999999999901e-01 3.740160000000000151e-01 4.969990000000000241e-01 3.719000000000000083e-02 6.479500000000000537e-02 -2.064809999999999979e-01 -1.763480000000000047e-01 -1.258920000000000039e-01 -7.258480000000000487e-01 -1.478629999999999944e-01 5.752770000000000383e-01 4.934299999999999797e-02 -5.457100000000000145e-02 -2.147809999999999997e-01 7.705469999999999819e-01 -4.651850000000000152e-01 2.350160000000000027e-01 3.807459999999999734e-01 -2.208809999999999940e-01 -5.276570000000000427e-01 1.022799999999999924e-02 4.080929999999999835e-01 1.617030000000000134e-01 6.737400000000000333e-02 1.592860000000000109e-01 -4.962529999999999997e-01 4.833239999999999759e-01 -2.213549999999999962e-01 -1.489340000000000108e-01 3.254759999999999875e-01 -9.805700000000000527e-02 -2.521990000000000065e-01 -2.807700000000000126e-02 -1.348668999999999896e+00 -1.557155000000000067e+00 1.830849999999999977e-01 1.334100000000000008e-01 5.884500000000000286e-01 -3.283039999999999847e-01 1.191453000000000095e+00 1.232216999999999896e+00 -2.262790000000000079e-01 -1.474800000000000069e-02 3.055080000000000018e-01 4.989699999999999691e-02
4.475300000000000111e-02 4.876369999999999871e-01 -3.255210000000000048e-01 3.053000000000000158e-02 -6.316800000000000193e-01 -1.101179999999999937e-01 5.223320000000000185e-01 3.311069999999999847e-01 -4.409859999999999891e-01 1.631980000000000097e-01 -1.000810000000000033e-01 -7.989659999999999540e-01 -1.856480000000000075e-01 7.201610000000000511e-01 -8.689519999999999467e-01 -7.006000000000000075e-03 9.295809999999999906e-01 7.585799999999999488e-02 -8.136879999999999669e-01 4.642760000000000220e-01 -7.620899999999999896e-02 -5.072670000000000234e-01 -5.846240000000000325e-01 3.516369999999999774e-01 -5.602610000000000090e-01 8.987599999999999756e-02 3.966689999999999938e-01 -4.022399999999999864e-01 -4.800730000000000275e-01 6.246000000000000441e-01 1.798319999999999919e-01 8.041040000000000409e-01 1.689660000000000051e-01 -4.444100000000000134e-02 -2.515299999999999758e-01 6.904500000000000082e-01 -2.293299999999999852e-02 -4.464099999999999735e-01 1.927869999999999862e-01 4.002530000000000254e-01 3.688700000000000312e-02 -2.934579999999999966e-01 -1.218469999999999970e-01 -5.743399999999999894e-02 6.284900000000000209e-02 2.852580000000000116e-01 -6.390600000000000447e-02 2.605589999999999851e-01 3.515010000000000079e-01 -8.919430000000000414e-01 5.738550000000000040e-01 2.506019999999999914e-01 -7.603410000000000446e-01 7.548679999999999835e-01 -6.815520000000000467e-01 8.890709999999999447e-01 -7.774050000000000127e-01 1.118624000000000063e+00 -4.846809999999999730e-01 -4.614809999999999746e-01
9.067290000000000072e-01 -3.401179999999999759e-01 5.977360000000000451e-01 3.964110000000000134e-01 2.575209999999999999e-01 2.892730000000000024e-01 -5.536499999999999755e-01 6.611010000000000497e-01 7.173110000000000319e-01 -5.271350000000000202e-01 -3.734950000000000214e-01 2.613070000000000115e-01 1.855021999999999949e+00 1.388284000000000074e+00 9.860419999999999741e-01 -3.926399999999999890e-01 -4.062069999999999848e-01 1.833390000000000020e-01 2.168450000000000100e-01 -5.098470000000000502e-01 -2.233600000000000030e-01 4.949930000000000163e-01 -5.961440000000000072e-01 1.714360000000000051e-01 6.397969999999999491e-01 -3.160299999999999915e-02 -5.309139999999999970e-01 2.863720000000000154e-01 -2.829639999999999933e-01 1.113829999999999959e-01 -7.548460000000000170e-01 1.617830000000000101e-01 -6.395100000000000229e-01 2.245920000000000138e-01 2.763100000000000001e-01 -1.121029999999999943e-01 5.891140000000000265e-01 -1.538239999999999885e-01 -3.589180000000000148e-01 -4.989540000000000086e-01 -8.890699999999999992e-02 -2.710759999999999836e-01 -5.732300000000000173e-01 5.137260000000000160e-01 -3.291700000000000181e-02 -1.043860000000000066e-01 7.193239999999999634e-01 -4.305660000000000043e-01 -7.850200000000000233e-02 -3.874999999999999972e-03 -6.682599999999999651e-02 -8.265740000000000309e-01 -5.777280000000000193e-01 -7.875839999999999508e-01 4.674909999999999899e-01 1.815440000000000109e-01 5.139519999999999644e-01 -1.767449999999999966e+00 -7.948790000000000022e-01 -3.780040000000000067e-01
3.722500000000000114e-02 1.424500000000000072e-02 -3.893619999999999859e-01 3.958699999999999719e-02 -7.750100000000000044e-02 -1.198789999999999994e-01 -2.462940000000000129e-01 -3.663569999999999882e-01 5.705970000000000208e-01 -2.641490000000000227e-01 -7.255019999999999802e-01 -1.206659999999999955e-01 1.308499999999999941e-01 -5.336500000000000271e-02 -2.665549999999999864e-01 7.371229999999999727e-01 4.897070000000000034e-01 1.907059999999999866e-01 1.744560000000000000e-01 -9.225710000000000299e-01 -4.963040000000000229e-01 -7.356479999999999686e-01 1.899170000000000025e-01 2.461000000000000080e-03 1.139580000000000037e-01 6.251200000000000090e-01 2.384899999999999867e-02 6.555819999999999981e-01 7.071720000000000228e-01 -5.204500000000000098e-02 -4.233790000000000053e-01 -1.732049999999999979e-01 -3.357850000000000001e-01 -2.901850000000000263e-01 -7.367000000000000284e-03 4.704749999999999766e-01 1.858769999999999867e-01 -1.433159999999999989e-01 3.717929999999999846e-01 -2.603920000000000123e-01 -1.437699999999999916e-02 3.474630000000000218e-01 3.675729999999999831e-01 1.184150000000000064e-01 -1.798800000000000052e-02 3.397200000000000220e-02 4.957199999999999801e-02 2.563150000000000150e-01 -1.176910000000000039e-01 -4.016499999999999931e-02 -2.491859999999999908e-01 -1.139164999999999983e+00 7.528390000000000359e-01 1.866210000000000091e-01 8.114369999999999639e-01 -4.519520000000000204e-01 -5.767550000000000177e-01 1.892629999999999868e-01 2.869299999999999976e-02 2.042420000000000069e-01
2.293630000000000113e-01 4.252899999999999736e-02 -6.864890000000000159e-01 -2.235620000000000107e-01 -4.212599999999999678e-02 -5.490279999999999605e-01 5.736800000000000233e-02 -3.484470000000000067e-01 -7.916760000000000463e-01 -2.124570000000000070e-01 -1.163909999999999945e-01 -3.075410000000000088e-01 -2.799449999999999994e-01 2.080999999999999951e-03 -1.371149999999999869e-01 4.094389999999999974e-01 -3.187380000000000213e-01 -3.685720000000000107e-01 -1.234640000000000043e-01 2.609380000000000033e-01 -1.243029999999999968e-01 3.239620000000000277e-01 -3.611170000000000213e-01 2.550430000000000197e-01 -6.541150000000000020e-01 -6.182250000000000245e-01 6.090339999999999643e-01 -2.462540000000000007e-01 7.594239999999999879e-01 3.520079999999999876e-01 6.063460000000000516e-01 -3.613800000000000345e-02 5.874829999999999774e-01 5.700340000000000407e-01 4.832089999999999996e-01 2.819550000000000112e-01 -1.539339999999999875e-01 3.356330000000000147e-01 3.864009999999999945e-01 4.753100000000000103e-01 -3.733299999999999952e-01 2.458899999999999975e-02 1.996290000000000009e-01 -2.021209999999999951e-01 4.031930000000000236e-01 4.214040000000000008e-01 2.439840000000000064e-01 2.051570000000000060e-01 -2.710000000000000187e-01 -1.089504999999999946e+00 7.612919999999999687e-01 -5.400970000000000493e-01 9.393080000000000318e-01 -6.775200000000000666e-02 1.992170000000000052e-01 -3.464860000000000162e-01 -4.932940000000000103e-01 -7.872430000000000261e-01 7.855189999999999673e-01 -3.403829999999999911e-01
-2.472820000000000018e-01 -2.835059999999999802e-01 -1.058332999999999968e+00 3.871729999999999894e-01 4.499889999999999723e-01 -7.737950000000000106e-01 -2.185600000000000043e-02 -2.482360000000000122e-01 -1.120449000000000028e+00 -8.064399999999999347e-02 3.026570000000000094e-01 -5.323970000000000091e-01 -3.353400000000000269e-01 -6.294710000000000027e-01 -2.154169999999999974e-01 1.948950000000000127e-01 7.926300000000000012e-02 -2.730290000000000217e-01 1.690200000000000036e-02 -2.802959999999999896e-01 -1.226259999999999989e-01 -2.025899999999999923e-01 7.836649999999999450e-01 -1.534899999999999876e-01 2.618340000000000112e-01 -3.617900000000000282e-02 8.535669999999999646e-01 5.672900000000000165e-02 -2.974609999999999754e-01 5.270190000000000152e-01 -1.452100000000000057e-01 4.873899999999999760e-02 7.606619999999999493e-01 2.312780000000000113e-01 -2.695060000000000233e-01 3.774919999999999942e-01 2.568499999999999950e-02 2.276040000000000008e-01 6.148150000000000004e-01 -4.703220000000000178e-01 8.809500000000000663e-02 5.258380000000000276e-01 1.693530000000000035e-01 2.751399999999999957e-01 5.638499999999999623e-01 -7.257900000000000462e-02 -3.292019999999999946e-01 -2.392189999999999872e-01 -1.358999999999999965e-02 9.978399999999999770e-02 3.521239999999999926e-01 2.714499999999999899e-02 -2.388139999999999985e-01 -2.460620000000000029e-01 1.566180000000000072e-01 6.821199999999999486e-02 3.558200000000000252e-02 6.180200000000000277e-02 1.895209999999999950e-01 1.238680000000000059e-01