9.079999999999999530e-03 2.276920000000000055e+00 1.619790000000000063e+00 -1.968190000000000106e+00 5.701520000000000366e+00 1.619790000000000063e+00 3.963309999999999889e+00 2.276920000000000055e+00 1.619790000000000063e+00 1.986040000000000028e+00 5.701520000000000366e+00 1.619790000000000063e+00 7.905020000000000380e+00 3.550000000000000204e-03 5.929079999999999906e+00 5.927749999999999631e+00 3.428139999999999965e+00 5.929079999999999906e+00 3.950790000000000024e+00 3.550000000000000204e-03 5.929079999999999906e+00 1.973519999999999941e+00 3.428139999999999965e+00 5.929079999999999906e+00 1.982369999999999965e+00 1.141229999999999967e+00 2.630700000000000260e-01 5.100000000000000366e-03 4.565820000000000434e+00 2.630700000000000260e-01 5.936600000000000321e+00 1.141229999999999967e+00 2.630700000000000260e-01 3.959330000000000016e+00 4.565820000000000434e+00 2.630700000000000260e-01 -1.068999999999999985e-02 2.289190000000000058e+00 4.199580000000000091e+00 -1.987959999999999949e+00 5.713779999999999859e+00 4.199580000000000091e+00 3.943540000000000045e+00 2.289190000000000058e+00 4.199580000000000091e+00 1.966269999999999962e+00 5.713779999999999859e+00 4.199580000000000091e+00 1.976620000000000044e+00 1.138260000000000050e+00 7.367849999999999788e+00 -6.499999999999999702e-04 4.562850000000000072e+00 7.367849999999999788e+00 5.930850000000000399e+00 1.138260000000000050e+00 7.367849999999999788e+00 3.953580000000000094e+00 4.562850000000000072e+00 7.367849999999999788e+00
1.115999999999999978e-02 2.272380000000000067e+00 1.621909999999999963e+00 -1.973190000000000000e+00 5.702049999999999841e+00 1.615930000000000089e+00 3.960669999999999913e+00 2.272489999999999899e+00 1.614209999999999923e+00 1.991030000000000078e+00 5.698830000000000062e+00 1.622919999999999918e+00 7.898579999999999934e+00 2.680000000000000090e-03 5.931149999999999700e+00 5.922649999999999970e+00 3.426439999999999930e+00 5.930869999999999642e+00 3.950330000000000119e+00 1.760000000000000063e-03 5.928729999999999833e+00 1.972849999999999993e+00 3.432749999999999968e+00 5.932730000000000281e+00 1.989190000000000014e+00 1.148500000000000076e+00 2.548099999999999810e-01 9.339999999999999344e-03 4.569950000000000401e+00 2.613099999999999867e-01 5.934969999999999857e+00 1.137680000000000025e+00 2.709799999999999986e-01 3.960620000000000029e+00 4.561480000000000423e+00 2.659000000000000252e-01 -5.040000000000000209e-03 2.296279999999999877e+00 4.203420000000000378e+00 -1.987630000000000008e+00 5.716580000000000439e+00 4.201299999999999812e+00 3.946169999999999956e+00 2.285169999999999924e+00 4.207049999999999734e+00 1.969999999999999973e+00 5.710930000000000284e+00 4.202180000000000248e+00 1.978639999999999954e+00 1.137690000000000090e+00 7.364919999999999689e+00 8.819999999999999715e-03 4.566189999999999749e+00 7.357350000000000279e+00 5.923099999999999810e+00 1.148949999999999916e+00 7.362890000000000157e+00 3.946060000000000123e+00 4.558679999999999843e+00 7.365569999999999951e+00
1.323000000000000044e-02 2.267869999999999830e+00 1.624069999999999903e+00 -1.978180000000000049e+00 5.702600000000000335e+00 1.612119999999999997e+00 3.958029999999999937e+00 2.268069999999999808e+00 1.608710000000000084e+00 1.995999999999999996e+00 5.696139999999999759e+00 1.626090000000000035e+00 7.892159999999999620e+00 1.809999999999999977e-03 5.933320000000000149e+00 5.917550000000000310e+00 3.424749999999999961e+00 5.932739999999999903e+00 -4.680000000000000132e-03 6.849160000000000359e+00 5.928469999999999906e+00 1.972190000000000110e+00 3.437330000000000219e+00 5.936460000000000292e+00 1.995980000000000087e+00 1.155729999999999924e+00 2.466500000000000081e-01 1.358000000000000006e-02 4.574060000000000237e+00 2.596600000000000019e-01 5.933370000000000033e+00 1.134130000000000082e+00 2.789599999999999858e-01 3.961920000000000108e+00 4.557140000000000413e+00 2.688099999999999934e-01 6.199999999999999999e-04 2.303360000000000074e+00 4.207150000000000389e+00 -1.987300000000000066e+00 5.719380000000000130e+00 4.202890000000000015e+00 3.948799999999999866e+00 2.281140000000000168e+00 4.214349999999999596e+00 1.973740000000000050e+00 5.708079999999999821e+00 4.204659999999999620e+00 1.980639999999999956e+00 1.137129999999999974e+00 7.361830000000000318e+00 1.823999999999999927e-02 4.569519999999999804e+00 7.346709999999999852e+00 5.915359999999999729e+00 1.159620000000000095e+00 7.357779999999999987e+00 3.938550000000000217e+00 4.554540000000000255e+00 7.363139999999999574e+00
1.529999999999999936e-02 2.263399999999999856e+00 1.626249999999999973e+00 -1.983139999999999903e+00 5.703170000000000073e+00 1.608349999999999946e+00 3.955389999999999961e+00 2.263669999999999849e+00 1.603339999999999987e+00 2.000939999999999941e+00 5.693459999999999965e+00 1.629299999999999971e+00 7.885749999999999815e+00 9.499999999999999981e-04 5.935570000000000235e+00 5.912460000000000271e+00 3.423090000000000188e+00 5.934680000000000177e+00 -5.150000000000000064e-03 6.847389999999999866e+00 5.928270000000000373e+00 1.971540000000000070e+00 3.441850000000000076e+00 5.940240000000000187e+00 2.002709999999999990e+00 1.162900000000000045e+00 2.385899999999999965e-01 1.780999999999999944e-02 4.578129999999999811e+00 2.581399999999999806e-01 5.931820000000000093e+00 1.130570000000000075e+00 2.869900000000000229e-01 3.963220000000000187e+00 4.552810000000000024e+00 2.717800000000000216e-01 6.270000000000000399e-03 2.310410000000000075e+00 4.210740000000000371e+00 -1.986960000000000059e+00 5.722170000000000201e+00 4.204340000000000188e+00 3.951420000000000154e+00 2.277130000000000098e+00 4.221460000000000434e+00 1.977489999999999970e+00 5.705230000000000246e+00 4.207019999999999982e+00 1.982590000000000074e+00 1.136560000000000015e+00 7.358570000000000277e+00 2.758000000000000035e-02 4.572860000000000369e+00 7.335960000000000036e+00 5.907659999999999911e+00 1.170239999999999947e+00 7.352540000000000298e+00 3.931080000000000130e+00 4.550449999999999662e+00 7.360579999999999679e+00
1.737999999999999962e-02 2.258989999999999831e+00 1.628460000000000019e+00 -1.988050000000000095e+00 5.703759999999999941e+00 1.604649999999999910e+00 3.952770000000000117e+00 2.259290000000000020e+00 1.598149999999999959e+00 2.005840000000000067e+00 5.690780000000000172e+00 1.632560000000000011e+00 7.879369999999999763e+00 1.100000000000000039e-04 5.937920000000000087e+00 5.907399999999999984e+00 3.421469999999999789e+00 5.936659999999999826e+00 -5.649999999999999641e-03 6.845650000000000013e+00 5.928130000000000344e+00 1.970930000000000071e+00 3.446289999999999853e+00 5.944040000000000212e+00 2.009339999999999904e+00 1.169980000000000020e+00 2.306400000000000117e-01 2.200999999999999832e-02 4.582130000000000258e+00 2.567699999999999982e-01 5.930349999999999788e+00 1.127000000000000002e+00 2.950699999999999990e-01 3.964519999999999822e+00 4.548499999999999766e+00 2.747700000000000142e-01 1.191000000000000045e-02 2.317429999999999879e+00 4.214179999999999815e+00 -1.986639999999999961e+00 5.724949999999999761e+00 4.205630000000000202e+00 3.954039999999999999e+00 2.273120000000000029e+00 4.228309999999999569e+00 1.981239999999999890e+00 5.702410000000000423e+00 4.209240000000000315e+00 1.984490000000000087e+00 1.135990000000000055e+00 7.355159999999999698e+00 3.679000000000000326e-02 4.576200000000000045e+00 7.325149999999999828e+00 5.900000000000000355e+00 1.180800000000000072e+00 7.347220000000000084e+00 3.923680000000000057e+00 4.546450000000000102e+00 7.357910000000000394e+00
1.946000000000000160e-02 2.254649999999999821e+00 1.630700000000000038e+00 -1.992879999999999985e+00 5.704390000000000072e+00 1.601020000000000110e+00 3.950169999999999959e+00 2.254929999999999879e+00 1.593180000000000041e+00 2.010699999999999932e+00 5.688080000000000247e+00 1.635880000000000001e+00 3.918499999999999872e+00 6.848489999999999966e+00 5.940360000000000085e+00 5.902359999999999829e+00 3.419919999999999849e+00 5.938659999999999606e+00 -6.159999999999999677e-03 6.843939999999999912e+00 5.928020000000000067e+00 1.970350000000000046e+00 3.450619999999999798e+00 5.947849999999999859e+00 2.015849999999999920e+00 1.176940000000000097e+00 2.227899999999999880e-01 2.619000000000000147e-02 4.586070000000000313e+00 2.555700000000000194e-01 5.928960000000000008e+00 1.123420000000000085e+00 3.031599999999999850e-01 3.965809999999999835e+00 4.544209999999999638e+00 2.777899999999999814e-01 1.754000000000000004e-02 2.324390000000000178e+00 4.217459999999999987e+00 -1.986329999999999929e+00 5.727719999999999700e+00 4.206750000000000433e+00 3.956649999999999778e+00 2.269120000000000026e+00 4.234869999999999912e+00 1.985000000000000098e+00 5.699600000000000222e+00 4.211319999999999730e+00 1.986310000000000020e+00 1.135399999999999965e+00 7.351609999999999978e+00 4.583000000000000268e-02 4.579519999999999591e+00 7.314320000000000377e+00 5.892409999999999926e+00 1.191259999999999986e+00 7.341829999999999856e+00 3.916370000000000129e+00 4.542550000000000310e+00 7.355179999999999829e+00
2.154999999999999971e-02 2.250389999999999890e+00 1.632949999999999902e+00 -1.997630000000000017e+00 5.705040000000000333e+00 1.597460000000000102e+00 3.947589999999999932e+00 2.250609999999999999e+00 1.588470000000000049e+00 2.015499999999999847e+00 5.685380000000000322e+00 1.639259999999999939e+00 3.912209999999999965e+00 6.847719999999999807e+00 5.942879999999999718e+00 5.897350000000000314e+00 3.418449999999999989e+00 5.940680000000000405e+00 -6.700000000000000226e-03 6.842279999999999696e+00 5.927929999999999922e+00 1.969819999999999904e+00 3.454819999999999780e+00 5.951640000000000263e+00 2.022200000000000220e+00 1.183769999999999989e+00 2.150400000000000089e-01 3.032999999999999932e-02 4.589929999999999843e+00 2.545499999999999985e-01 5.927690000000000126e+00 1.119830000000000103e+00 3.112500000000000266e-01 3.967089999999999783e+00 4.539959999999999773e+00 2.807999999999999940e-01 2.314000000000000085e-02 2.331300000000000150e+00 4.220559999999999867e+00 -1.986040000000000028e+00 5.730470000000000397e+00 4.207679999999999865e+00 3.959229999999999805e+00 2.265140000000000153e+00 4.241100000000000314e+00 1.988769999999999927e+00 5.696819999999999773e+00 4.213250000000000384e+00 1.988029999999999964e+00 1.134789999999999965e+00 7.347929999999999851e+00 5.467000000000000332e-02 4.582840000000000025e+00 7.303510000000000169e+00 5.884909999999999641e+00 1.201580000000000092e+00 7.336409999999999876e+00 3.909159999999999968e+00 4.538780000000000037e+00 7.352389999999999759e+00
2.366000000000000048e-02 2.246220000000000105e+00 1.635229999999999961e+00 -2.002270000000000216e+00 5.705739999999999590e+00 1.593970000000000109e+00 3.945040000000000102e+00 2.246309999999999807e+00 1.584060000000000024e+00 2.020249999999999879e+00 5.682660000000000267e+00 1.642700000000000049e+00 3.905969999999999942e+00 6.847000000000000419e+00 5.945490000000000386e+00 5.892380000000000173e+00 3.417089999999999961e+00 5.942680000000000184e+00 -7.259999999999999960e-03 6.840679999999999872e+00 5.927850000000000286e+00 1.969349999999999934e+00 3.458870000000000111e+00 5.955379999999999896e+00 2.028360000000000163e+00 1.190439999999999943e+00 2.073800000000000088e-01 3.443000000000000227e-02 4.593700000000000117e+00 2.537200000000000011e-01 5.926549999999999763e+00 1.116230000000000055e+00 3.193300000000000027e-01 3.968360000000000110e+00 4.535750000000000171e+00 2.837799999999999767e-01 2.871999999999999900e-02 2.338150000000000173e+00 4.223489999999999966e+00 -1.985780000000000101e+00 5.733220000000000205e+00 4.208420000000000272e+00 3.961800000000000210e+00 2.261179999999999968e+00 4.246970000000000134e+00 1.992550000000000043e+00 5.694069999999999965e+00 4.215029999999999610e+00 1.989649999999999919e+00 1.134149999999999991e+00 7.344140000000000335e+00 6.327000000000000679e-02 4.586149999999999949e+00 7.292760000000000353e+00 5.877489999999999881e+00 1.211759999999999948e+00 7.331000000000000405e+00 3.902080000000000215e+00 4.535160000000000302e+00 7.349599999999999689e+00
2.579000000000000042e-02 2.242160000000000153e+00 1.637529999999999930e+00 -2.006790000000000074e+00 5.706479999999999997e+00 1.590570000000000039e+00 3.942530000000000090e+00 2.242039999999999811e+00 1.579970000000000097e+00 2.024929999999999897e+00 5.679909999999999570e+00 1.646209999999999951e+00 3.899789999999999868e+00 6.846330000000000027e+00 5.948179999999999801e+00 5.887450000000000294e+00 3.415859999999999896e+00 5.944650000000000212e+00 -7.860000000000000667e-03 6.839150000000000063e+00 5.927749999999999631e+00 1.968949999999999978e+00 3.462730000000000086e+00 5.959050000000000402e+00 2.034310000000000063e+00 1.196949999999999958e+00 1.998099999999999876e-01 3.848000000000000032e-02 4.597380000000000244e+00 2.530999999999999917e-01 5.925559999999999938e+00 1.112610000000000099e+00 3.274000000000000243e-01 3.969619999999999926e+00 4.531589999999999563e+00 2.867299999999999849e-01 3.427999999999999797e-02 2.344930000000000181e+00 4.226239999999999775e+00 -1.985559999999999992e+00 5.735949999999999882e+00 4.208949999999999747e+00 3.964329999999999909e+00 2.257219999999999782e+00 4.252449999999999619e+00 1.996340000000000003e+00 5.691360000000000419e+00 4.216649999999999565e+00 1.991139999999999910e+00 1.133480000000000043e+00 7.340230000000000032e+00 7.158000000000000473e-02 4.589450000000000252e+00 7.282110000000000305e+00 5.870180000000000398e+00 1.221759999999999957e+00 7.325619999999999798e+00 3.895160000000000178e+00 4.531699999999999839e+00 7.346820000000000128e+00
2.793999999999999956e-02 2.238210000000000033e+00 1.639850000000000030e+00 -2.011179999999999968e+00 5.707270000000000287e+00 1.587239999999999984e+00 3.940059999999999896e+00 2.237800000000000011e+00 1.576240000000000085e+00 2.029549999999999965e+00 5.677130000000000010e+00 1.649799999999999933e+00 3.893670000000000186e+00 6.845720000000000027e+00 5.950960000000000250e+00 5.882550000000000168e+00 3.414769999999999861e+00 5.946570000000000356e+00 -8.500000000000000611e-03 6.837690000000000268e+00 5.927620000000000111e+00 1.968630000000000102e+00 3.466390000000000082e+00 5.962620000000000253e+00 2.040020000000000167e+00 1.203270000000000062e+00 1.923100000000000087e-01 4.248999999999999999e-02 4.600950000000000095e+00 2.527099999999999902e-01 5.924739999999999895e+00 1.108970000000000011e+00 3.354300000000000059e-01 3.970860000000000056e+00 4.527470000000000105e+00 2.896400000000000086e-01 3.980000000000000204e-02 2.351649999999999796e+00 4.228790000000000049e+00 -1.985370000000000079e+00 5.738669999999999938e+00 4.209270000000000067e+00 3.966829999999999856e+00 2.253280000000000172e+00 4.257509999999999906e+00 2.000150000000000095e+00 5.688679999999999737e+00 4.218119999999999870e+00 1.992490000000000094e+00 1.132770000000000055e+00 7.336229999999999585e+00 7.957999999999999796e-02 4.592740000000000045e+00 7.271580000000000155e+00 5.862969999999999793e+00 1.231570000000000054e+00 7.320310000000000095e+00 3.888389999999999791e+00 4.528430000000000177e+00 7.344079999999999941e+00
3.013000000000000053e-02 2.234360000000000124e+00 1.642190000000000039e+00 -2.015420000000000211e+00 5.708120000000000083e+00 1.583990000000000009e+00 3.937629999999999963e+00 2.233579999999999899e+00 1.572899999999999965e+00 2.034110000000000085e+00 5.674310000000000187e+00 1.653469999999999995e+00 3.887599999999999945e+00 6.845180000000000042e+00 5.953820000000000334e+00 5.877699999999999925e+00 3.413860000000000117e+00 5.948419999999999597e+00 -9.190000000000000252e-03 6.836319999999999730e+00 5.927430000000000199e+00 1.968399999999999928e+00 3.469819999999999904e+00 5.966070000000000206e+00 2.045459999999999834e+00 1.209389999999999965e+00 1.848599999999999965e-01 4.644999999999999823e-02 4.604420000000000179e+00 2.525399999999999867e-01 5.924109999999999765e+00 1.105310000000000015e+00 3.434499999999999775e-01 3.972090000000000121e+00 4.523390000000000022e+00 2.924700000000000077e-01 4.531000000000000305e-02 2.358299999999999841e+00 4.231139999999999901e+00 -1.985230000000000050e+00 5.741389999999999993e+00 4.209360000000000213e+00 3.969310000000000116e+00 2.249350000000000183e+00 4.262129999999999974e+00 2.003979999999999873e+00 5.686029999999999696e+00 4.219430000000000014e+00 1.993679999999999897e+00 1.132020000000000026e+00 7.332130000000000258e+00 8.723000000000000198e-02 4.596040000000000347e+00 7.261210000000000164e+00 5.855870000000000353e+00 1.241160000000000041e+00 7.315089999999999648e+00 3.881810000000000205e+00 4.525360000000000049e+00 7.341409999999999769e+00
3.235999999999999988e-02 2.230640000000000178e+00 1.644560000000000022e+00 -2.019519999999999982e+00 5.709030000000000271e+00 1.580819999999999892e+00 3.935249999999999915e+00 2.229379999999999917e+00 1.569960000000000022e+00 2.038600000000000190e+00 5.671429999999999971e+00 1.657229999999999981e+00 3.881580000000000030e+00 6.844719999999999693e+00 5.956760000000000055e+00 5.872880000000000322e+00 3.413139999999999841e+00 5.950169999999999959e+00 -9.919999999999999998e-03 6.835049999999999848e+00 5.927179999999999893e+00 1.968269999999999964e+00 3.472999999999999865e+00 5.969369999999999621e+00 2.050619999999999887e+00 1.215319999999999956e+00 1.774499999999999966e-01 5.036000000000000199e-02 4.607779999999999987e+00 2.526200000000000112e-01 5.923689999999999678e+00 1.101609999999999978e+00 3.514300000000000201e-01 3.973300000000000054e+00 4.519350000000000200e+00 2.952400000000000024e-01 5.079000000000000181e-02 2.364889999999999937e+00 4.233299999999999841e+00 -1.985139999999999905e+00 5.744100000000000428e+00 4.209209999999999674e+00 3.971750000000000114e+00 2.245420000000000194e+00 4.266300000000000203e+00 2.007849999999999913e+00 5.683419999999999916e+00 4.220579999999999998e+00 1.994709999999999983e+00 1.131210000000000049e+00 7.327939999999999898e+00 9.449000000000000454e-02 4.599339999999999762e+00 7.251030000000000086e+00 5.848880000000000301e+00 1.250520000000000076e+00 7.309989999999999988e+00 3.875430000000000152e+00 4.522520000000000095e+00 7.338840000000000252e+00
3.463999999999999718e-02 2.227030000000000065e+00 1.646949999999999914e+00 -2.023460000000000036e+00 5.710009999999999586e+00 1.577720000000000011e+00 3.932920000000000194e+00 2.225190000000000001e+00 1.567460000000000075e+00 2.043039999999999967e+00 5.668499999999999872e+00 1.661089999999999955e+00 3.875599999999999934e+00 6.844339999999999868e+00 5.959789999999999921e+00 5.868089999999999584e+00 3.412640000000000118e+00 5.951810000000000045e+00 -1.071000000000000077e-02 6.833879999999999733e+00 5.926829999999999821e+00 1.968259999999999899e+00 3.475900000000000212e+00 5.972500000000000142e+00 2.055480000000000196e+00 1.221030000000000060e+00 1.700500000000000067e-01 5.423000000000000043e-02 4.611030000000000406e+00 2.529600000000000182e-01 5.923479999999999634e+00 1.097879999999999967e+00 3.593999999999999972e-01 3.974489999999999856e+00 4.515360000000000262e+00 2.979200000000000181e-01 5.627000000000000057e-02 2.371430000000000149e+00 4.235249999999999737e+00 -1.985109999999999930e+00 5.746809999999999974e+00 4.208829999999999849e+00 3.974169999999999980e+00 2.241490000000000204e+00 4.269989999999999952e+00 2.011760000000000215e+00 5.680850000000000399e+00 4.221569999999999823e+00 1.995549999999999935e+00 1.130349999999999966e+00 7.323669999999999902e+00 1.013399999999999995e-01 4.602649999999999686e+00 7.241060000000000052e+00 5.841999999999999638e+00 1.259640000000000093e+00 7.305039999999999978e+00 3.869250000000000078e+00 4.519919999999999938e+00 7.336389999999999745e+00
3.697999999999999898e-02 2.223539999999999850e+00 1.649370000000000003e+00 -2.027229999999999865e+00 5.711070000000000313e+00 1.574680000000000080e+00 3.930629999999999846e+00 2.221010000000000151e+00 1.565409999999999968e+00 2.047429999999999861e+00 5.665479999999999627e+00 1.665070000000000050e+00 3.869650000000000034e+00 6.844050000000000189e+00 5.962920000000000442e+00 5.863330000000000375e+00 3.412389999999999812e+00 5.953319999999999723e+00 -1.157000000000000042e-02 6.832819999999999894e+00 5.926379999999999981e+00 1.968369999999999953e+00 3.478509999999999991e+00 5.975439999999999863e+00 2.060029999999999806e+00 1.226529999999999898e+00 1.626400000000000068e-01 5.804999999999999744e-02 4.614180000000000170e+00 2.535700000000000176e-01 5.923519999999999897e+00 1.094090000000000007e+00 3.673699999999999743e-01 3.975659999999999972e+00 4.511389999999999567e+00 3.004999999999999893e-01 6.173000000000000015e-02 2.377930000000000099e+00 4.236989999999999590e+00 -1.985139999999999905e+00 5.749539999999999651e+00 4.208199999999999719e+00 3.976550000000000029e+00 2.237540000000000084e+00 4.273189999999999600e+00 2.015719999999999956e+00 5.678309999999999746e+00 4.222419999999999618e+00 1.996199999999999974e+00 1.129420000000000091e+00 7.319309999999999761e+00 1.077499999999999986e-01 4.605979999999999741e+00 7.231320000000000192e+00 5.835219999999999629e+00 1.268489999999999895e+00 7.300270000000000259e+00 3.863280000000000047e+00 4.517570000000000086e+00 7.334089999999999776e+00
3.939999999999999752e-02 2.220169999999999977e+00 1.651829999999999909e+00 -2.030829999999999913e+00 5.712209999999999788e+00 1.571709999999999940e+00 3.928389999999999826e+00 2.216810000000000169e+00 1.563839999999999897e+00 2.051769999999999872e+00 5.662379999999999747e+00 1.669170000000000043e+00 3.863729999999999887e+00 6.843860000000000277e+00 5.966140000000000221e+00 5.858579999999999899e+00 3.412399999999999878e+00 5.954659999999999620e+00 -1.248999999999999937e-02 6.831879999999999953e+00 5.925790000000000113e+00 1.968620000000000037e+00 3.480799999999999894e+00 5.978159999999999918e+00 2.064239999999999853e+00 1.231819999999999915e+00 1.552000000000000046e-01 6.185000000000000220e-02 4.617230000000000167e+00 2.544799999999999840e-01 5.923820000000000086e+00 1.090249999999999941e+00 3.753400000000000070e-01 3.976820000000000022e+00 4.507439999999999891e+00 3.029999999999999916e-01 6.719999999999999585e-02 2.384399999999999853e+00 4.238529999999999909e+00 -1.985239999999999894e+00 5.752270000000000216e+00 4.207300000000000040e+00 3.978920000000000012e+00 2.233579999999999899e+00 4.275879999999999903e+00 2.019740000000000091e+00 5.675799999999999734e+00 4.223110000000000142e+00 1.996629999999999905e+00 1.128409999999999913e+00 7.314869999999999983e+00 1.136899999999999994e-01 4.609350000000000058e+00 7.221829999999999750e+00 5.828529999999999767e+00 1.277079999999999993e+00 7.295689999999999564e+00 3.857549999999999812e+00 4.515489999999999782e+00 7.331970000000000098e+00
4.189999999999999974e-02 2.216909999999999936e+00 1.654330000000000078e+00 -2.034260000000000179e+00 5.713440000000000296e+00 1.568799999999999972e+00 3.926200000000000134e+00 2.212600000000000122e+00 1.562769999999999992e+00 2.056080000000000130e+00 5.659169999999999590e+00 1.673410000000000064e+00 3.857810000000000183e+00 6.843770000000000131e+00 5.969470000000000276e+00 5.853839999999999932e+00 3.412729999999999819e+00 5.955840000000000245e+00 -1.349000000000000025e-02 6.831059999999999910e+00 5.925060000000000215e+00 1.969009999999999927e+00 3.482740000000000169e+00 5.980640000000000178e+00 2.068099999999999827e+00 1.236900000000000110e+00 1.476899999999999880e-01 6.561000000000000165e-02 4.620169999999999888e+00 2.556800000000000184e-01 5.924380000000000202e+00 1.086330000000000018e+00 3.833300000000000041e-01 3.977959999999999940e+00 4.503510000000000346e+00 3.053899999999999948e-01 7.269000000000000461e-02 2.390849999999999920e+00 4.239849999999999675e+00 -1.985419999999999963e+00 5.755040000000000155e+00 4.206140000000000434e+00 3.981259999999999799e+00 2.229569999999999830e+00 4.278039999999999843e+00 2.023849999999999927e+00 5.673309999999999853e+00 4.223659999999999748e+00 1.996839999999999948e+00 1.127320000000000100e+00 7.310340000000000060e+00 1.191399999999999959e-01 4.612750000000000128e+00 7.212600000000000122e+00 5.821920000000000428e+00 1.285390000000000033e+00 7.291319999999999801e+00 3.852050000000000196e+00 4.513700000000000045e+00 7.330049999999999955e+00
4.449999999999999789e-02 2.213760000000000172e+00 1.656889999999999974e+00 -2.037510000000000154e+00 5.714780000000000193e+00 1.565930000000000044e+00 3.924059999999999881e+00 2.208349999999999813e+00 1.562219999999999942e+00 2.060369999999999813e+00 5.655840000000000423e+00 1.677810000000000024e+00 3.851890000000000036e+00 6.843810000000000393e+00 5.972920000000000229e+00 5.849109999999999587e+00 3.413380000000000081e+00 5.956809999999999938e+00 -1.456999999999999962e-02 6.830390000000000406e+00 5.924150000000000027e+00 1.969570000000000043e+00 3.484319999999999862e+00 5.982870000000000132e+00 2.071610000000000174e+00 1.241770000000000040e+00 1.400800000000000101e-01 6.934999999999999498e-02 4.623009999999999842e+00 2.572099999999999942e-01 5.925250000000000128e+00 1.082330000000000014e+00 3.913699999999999957e-01 3.979080000000000172e+00 4.499570000000000292e+00 3.076699999999999990e-01 7.821000000000000174e-02 2.397299999999999986e+00 4.240960000000000285e+00 -1.985689999999999955e+00 5.757830000000000226e+00 4.204679999999999751e+00 3.983589999999999964e+00 2.225519999999999943e+00 4.279650000000000176e+00 2.028059999999999974e+00 5.670840000000000103e+00 4.224070000000000213e+00 1.996809999999999974e+00 1.126149999999999984e+00 7.305719999999999992e+00 1.240499999999999936e-01 4.616220000000000212e+00 7.203649999999999665e+00 5.815369999999999706e+00 1.293420000000000014e+00 7.287200000000000344e+00 3.846789999999999932e+00 4.512220000000000120e+00 7.328350000000000364e+00
4.721999999999999809e-02 2.210719999999999796e+00 1.659499999999999975e+00 -2.040570000000000217e+00 5.716230000000000366e+00 1.563090000000000090e+00 3.921949999999999825e+00 2.204050000000000065e+00 1.562210000000000099e+00 2.064649999999999874e+00 5.652359999999999829e+00 1.682379999999999987e+00 3.845930000000000071e+00 6.843969999999999665e+00 5.976490000000000080e+00 5.844350000000000378e+00 3.414410000000000167e+00 5.957559999999999967e+00 -1.575000000000000011e-02 6.829869999999999663e+00 5.923040000000000305e+00 1.970299999999999940e+00 3.485510000000000108e+00 5.984810000000000407e+00 2.074749999999999872e+00 1.246439999999999992e+00 1.323400000000000132e-01 7.308000000000000607e-02 4.625750000000000028e+00 2.590799999999999770e-01 5.926420000000000243e+00 1.078230000000000022e+00 3.994800000000000018e-01 3.980179999999999829e+00 4.495610000000000106e+00 3.098500000000000143e-01 8.376999999999999724e-02 2.403779999999999806e+00 4.241850000000000342e+00 -1.986050000000000093e+00 5.760670000000000179e+00 4.202930000000000277e+00 3.985920000000000130e+00 2.221410000000000107e+00 4.280689999999999884e+00 2.032389999999999919e+00 5.668389999999999596e+00 4.224339999999999762e+00 1.996510000000000007e+00 1.124880000000000102e+00 7.301000000000000156e+00 1.284099999999999964e-01 4.619749999999999801e+00 7.194980000000000153e+00 5.808869999999999756e+00 1.301150000000000029e+00 7.283350000000000435e+00 3.841779999999999973e+00 4.511059999999999626e+00 7.326909999999999812e+00
5.007999999999999952e-02 2.207790000000000141e+00 1.662179999999999991e+00 -2.043449999999999989e+00 5.717810000000000059e+00 1.560279999999999889e+00 3.919890000000000096e+00 2.199669999999999792e+00 1.562780000000000058e+00 2.068940000000000001e+00 5.648719999999999963e+00 1.687149999999999928e+00 3.839920000000000222e+00 6.844269999999999854e+00 5.980209999999999582e+00 5.839579999999999771e+00 3.415849999999999831e+00 5.958059999999999690e+00 -1.703000000000000000e-02 6.829500000000000348e+00 5.921700000000000408e+00 1.971209999999999907e+00 3.486270000000000202e+00 5.986439999999999984e+00 2.077500000000000124e+00 1.250899999999999901e+00 1.244299999999999989e-01 7.681000000000000327e-02 4.628409999999999691e+00 2.613199999999999967e-01 5.927940000000000431e+00 1.074000000000000066e+00 4.077000000000000068e-01 3.981279999999999930e+00 4.491609999999999658e+00 3.119100000000000206e-01 8.938999999999999724e-02 2.410299999999999887e+00 4.242510000000000225e+00 -1.986509999999999998e+00 5.763569999999999638e+00 4.200859999999999594e+00 3.988249999999999851e+00 2.217210000000000125e+00 4.281150000000000233e+00 2.036859999999999893e+00 5.665949999999999598e+00 4.224490000000000300e+00 1.995929999999999982e+00 1.123490000000000100e+00 7.296170000000000044e+00 1.321700000000000097e-01 4.623359999999999914e+00 7.186609999999999943e+00 5.802410000000000068e+00 1.308589999999999920e+00 7.279779999999999696e+00 3.837029999999999941e+00 4.510250000000000092e+00 7.325759999999999827e+00