-7.214139473999999552e+01
-7.214294293999999752e+01
-7.213556751000000133e+01
-7.211926669999999717e+01
-7.209414495000000045e+01
-7.206052544000000637e+01
-7.201883718999999928e+01
-7.196966718000000185e+01
-7.191371164000000249e+01
-7.185177991000000475e+01
-7.178485152000000369e+01
-7.171386796000000174e+01
-7.163991971999999464e+01
-7.156411183000000165e+01
-7.148754635000000235e+01
-7.141153058999999814e+01
-7.133712551000000701e+01
-7.126555398000000707e+01
-7.119795462999999813e+01
-7.113544165000000419e+01
-7.183695348999999908e+01
-7.183199240000000430e+01
-7.181908869000000095e+01
-7.179848595999999361e+01
-7.177047027000000412e+01
-7.173534284999999500e+01
-7.169382788999999434e+01
-7.164609511999999825e+01
-7.159307515000000421e+01
-7.153530994999999848e+01
-7.147348888000000500e+01
-7.140823355000000561e+01
-7.134025579999999422e+01
-7.127020532999999602e+01
-7.119896769999999719e+01
-7.112696352000000388e+01
-7.105501900999999521e+01
-7.098369472000000258e+01
-7.091366963999999484e+01
-7.084539123999999788e+01
-7.163330602999999996e+01
-7.163165496999999959e+01
-7.162135689999999499e+01
-7.160254967999999565e+01
-7.157566957999999602e+01
-7.154095549000000176e+01
-7.149914728999999625e+01
-7.145090641000000176e+01
-7.139695593000000429e+01
-7.133817582000000357e+01
-7.127537134000000663e+01
-7.120943350000000294e+01
-7.114126493000000551e+01
-7.107167970000000423e+01
-7.100160286000000553e+01
-7.093180701999999371e+01
-7.086313796999999681e+01
-7.079631141999999500e+01
-7.073196149000000332e+01
-7.067076987000000088e+01
-7.206706022000000189e+01
-7.206088291000000368e+01
-7.204664431999999863e+01
-7.202449549000000673e+01
-7.199474537999999768e+01
-7.195786728000000210e+01
-7.191445896000000459e+01
-7.186527180999999587e+01
-7.181111260000000129e+01
-7.175288000999999838e+01
-7.169156687999999633e+01
-7.162821456999999725e+01
-7.156390890000000127e+01
-7.149973065000000361e+01
-7.143674097999999617e+01
-7.137596449999999493e+01
-7.131835155000000270e+01
-7.126476635999999587e+01
-7.121592130000000509e+01
-7.117258750999999961e+01
-7.209493614000000150e+01
-7.208665114000000074e+01
-7.207115765000000351e+01
-7.204870157999999947e+01
-7.201975928000000238e+01
-7.198469602999999495e+01
-7.194407166000000586e+01
-7.189855468000000371e+01
-7.184878102999999783e+01
-7.179554577000000393e+01
-7.173955823999999382e+01
-7.168160353000000384e+01
-7.162241194000000633e+01
-7.156270415999999557e+01
-7.150324573999999700e+01
-7.144465074000000016e+01
-7.138749400999999750e+01
-7.133232074999999384e+01
-7.127962200000000337e+01
-7.122973647000000597e+01
