-1.875100000000000031e-02 2.614599999999999910e-02 1.130499999999999977e-01 -1.875100000000000031e-02 2.614599999999999910e-02 1.130359999999999976e-01 -1.874899999999999831e-02 2.614599999999999910e-02 1.130499999999999977e-01 -1.874999999999999931e-02 2.614800000000000110e-02 1.130789999999999990e-01 -3.937000000000000395e-03 -1.777099999999999860e-02 2.859990000000000032e-01 -3.937000000000000395e-03 -1.777199999999999960e-02 2.859990000000000032e-01 -3.938999999999999793e-03 -1.777300000000000060e-02 2.860070000000000112e-01 -3.938999999999999793e-03 -1.777199999999999960e-02 2.859900000000000220e-01 1.285799999999999964e-02 -2.427299999999999944e-02 1.942869999999999875e-01 1.285700000000000037e-02 -2.427500000000000144e-02 1.942859999999999865e-01 1.285500000000000011e-02 -2.427400000000000044e-02 1.942859999999999865e-01 1.285599999999999937e-02 -2.427599999999999897e-02 1.942859999999999865e-01 1.813499999999999834e-02 -6.662000000000000387e-03 -2.208970000000000100e-01 1.813899999999999887e-02 -6.658999999999999989e-03 -2.208930000000000060e-01 1.813599999999999934e-02 -6.662999999999999652e-03 -2.208940000000000070e-01 1.813400000000000081e-02 -6.661000000000000254e-03 -2.208940000000000070e-01 -8.155000000000000790e-03 2.247800000000000145e-02 -3.723279999999999923e-01 -8.156999999999999321e-03 2.248199999999999851e-02 -3.723299999999999943e-01 -8.155000000000000790e-03 2.248100000000000098e-02 -3.723310000000000231e-01 -8.151000000000000259e-03 2.248299999999999951e-02 -3.723259999999999903e-01
-1.001800000000000086e-02 7.615800000000000347e-02 9.972599999999999520e-02 3.967299999999999993e-02 4.172100000000000114e-02 1.344259999999999899e-01 -6.430000000000000169e-04 3.831600000000000283e-02 2.543059999999999765e-01 -5.000199999999999784e-02 1.485299999999999988e-02 1.239539999999999947e-01 2.804299999999999848e-02 8.644999999999999907e-03 2.806799999999999851e-01 1.695100000000000079e-02 3.112900000000000042e-02 2.383079999999999921e-01 -1.801799999999999929e-02 1.368699999999999951e-02 2.427759999999999918e-01 2.344800000000000009e-02 -8.951399999999999635e-02 2.215729999999999922e-01 -5.454500000000000320e-02 -7.839799999999999547e-02 2.045810000000000128e-01 -5.904000000000000394e-03 -5.649099999999999955e-02 2.340510000000000090e-01 5.700100000000000305e-02 -2.256400000000000072e-02 1.546019999999999894e-01 7.429999999999999973e-03 -3.128999999999999837e-03 1.543090000000000017e-01 5.186999999999999771e-03 -3.054000000000000117e-02 -2.484349999999999892e-01 6.153999999999999748e-03 -1.081900000000000049e-02 -2.560830000000000051e-01 6.248000000000000081e-03 1.974000000000000060e-03 -3.218559999999999754e-01 1.653900000000000162e-02 6.231000000000000427e-03 -2.386159999999999948e-01 -4.576299999999999812e-02 9.301999999999999505e-03 -3.520449999999999968e-01 -8.792200000000000015e-02 1.094900000000000040e-02 -2.947089999999999987e-01 2.921199999999999838e-02 -3.115000000000000061e-02 -3.140569999999999751e-01 3.674800000000000288e-02 6.953700000000000159e-02 -3.194759999999999822e-01
-9.790000000000000525e-04 1.243380000000000041e-01 8.655999999999999805e-02 9.859099999999999808e-02 5.698000000000000287e-02 1.547409999999999897e-01 1.853700000000000139e-02 5.107799999999999840e-02 3.909509999999999930e-01 -8.060499999999999610e-02 3.350999999999999812e-03 1.336340000000000028e-01 5.999499999999999972e-02 3.509999999999999926e-02 2.730040000000000244e-01 3.835100000000000314e-02 8.300000000000000433e-02 1.860960000000000114e-01 -3.193599999999999911e-02 4.591400000000000342e-02 1.967730000000000035e-01 5.218699999999999728e-02 -1.641050000000000009e-01 1.514079999999999870e-01 -1.235509999999999942e-01 -1.322109999999999952e-01 2.126959999999999962e-01 -2.468400000000000108e-02 -8.718900000000000261e-02 2.725529999999999897e-01 1.015029999999999960e-01 -2.088599999999999832e-02 1.149659999999999987e-01 1.520000000000000084e-03 1.788700000000000012e-02 1.141319999999999973e-01 -8.363000000000000642e-03 -5.447199999999999959e-02 -2.749199999999999977e-01 -6.152999999999999615e-03 -1.519000000000000038e-02 -2.890579999999999816e-01 -6.072000000000000140e-03 1.054599999999999982e-02 -4.180749999999999744e-01 1.488500000000000066e-02 1.917999999999999913e-02 -2.554819999999999869e-01 -8.341300000000000103e-02 -3.810000000000000019e-03 -3.295950000000000268e-01 -1.707940000000000014e-01 4.319999999999999838e-04 -2.120599999999999985e-01 6.669400000000000328e-02 -8.785600000000000354e-02 -2.517539999999999778e-01 8.361399999999999388e-02 1.174990000000000062e-01 -2.633820000000000050e-01
8.201999999999999222e-03 1.709849999999999981e-01 8.132699999999999652e-02 1.578630000000000033e-01 7.195300000000000307e-02 1.820090000000000041e-01 3.861599999999999755e-02 6.457699999999999552e-02 5.305729999999999613e-01 -1.109639999999999932e-01 -8.151999999999999524e-03 1.498329999999999940e-01 9.195200000000000595e-02 6.154400000000000148e-02 2.717559999999999976e-01 6.024299999999999794e-02 1.380139999999999978e-01 1.380139999999999978e-01 -4.566499999999999726e-02 7.896899999999999753e-02 1.569589999999999874e-01 8.239599999999999702e-02 -2.416979999999999962e-01 8.457299999999999540e-02 -1.933940000000000103e-01 -1.851160000000000028e-01 2.135120000000000073e-01 -4.314199999999999979e-02 -1.162159999999999999e-01 3.045669999999999766e-01 1.458369999999999944e-01 -1.926999999999999894e-02 7.080400000000000582e-02 -4.945999999999999876e-03 3.828000000000000153e-02 6.896900000000000253e-02 -2.249200000000000157e-02 -7.837399999999999922e-02 -3.063029999999999919e-01 -1.862899999999999973e-02 -1.957800000000000165e-02 -3.256419999999999870e-01 -1.866299999999999903e-02 1.881700000000000039e-02 -5.152299999999999658e-01 1.310099999999999980e-02 3.221299999999999858e-02 -2.773140000000000049e-01 -1.207160000000000039e-01 -1.661999999999999936e-02 -3.090080000000000049e-01 -2.566800000000000193e-01 -9.070999999999999203e-03 -1.280709999999999904e-01 1.038879999999999942e-01 -1.476659999999999917e-01 -1.892699999999999938e-01 1.322850000000000137e-01 1.659819999999999907e-01 -2.080940000000000012e-01
1.738100000000000062e-02 2.155880000000000019e-01 7.002800000000000691e-02 2.170839999999999992e-01 8.660199999999999843e-02 2.021959999999999869e-01 5.982099999999999917e-02 7.849000000000000421e-02 6.584539999999999837e-01 -1.407239999999999880e-01 -1.937099999999999933e-02 1.583420000000000105e-01 1.239119999999999944e-01 8.784599999999999353e-02 2.611290000000000000e-01 8.288900000000000434e-02 1.961610000000000020e-01 7.860799999999999732e-02 -5.915499999999999925e-02 1.123569999999999985e-01 1.072290000000000049e-01 1.134809999999999985e-01 -3.216109999999999802e-01 5.582000000000000156e-03 -2.641140000000000154e-01 -2.374340000000000062e-01 2.171520000000000117e-01 -6.153499999999999942e-02 -1.437809999999999921e-01 3.396890000000000187e-01 1.899530000000000107e-01 -1.754100000000000104e-02 3.191800000000000193e-02 -1.178700000000000060e-02 5.817599999999999855e-02 2.888999999999999901e-02 -3.723800000000000027e-02 -1.021790000000000059e-01 -3.296049999999999813e-01 -3.131500000000000256e-02 -2.425300000000000025e-02 -3.529329999999999967e-01 -3.146199999999999691e-02 2.713199999999999987e-02 -6.004850000000000465e-01 1.126599999999999997e-02 4.518400000000000194e-02 -2.908499999999999974e-01 -1.577079999999999871e-01 -2.928800000000000153e-02 -2.828169999999999851e-01 -3.453470000000000151e-01 -1.733499999999999971e-02 -3.600199999999999928e-02 1.408679999999999932e-01 -2.105700000000000072e-01 -1.196149999999999991e-01 1.828529999999999878e-01 2.150630000000000042e-01 -1.465380000000000016e-01
2.634200000000000083e-02 2.582860000000000156e-01 6.145599999999999674e-02 2.759730000000000238e-01 1.007900000000000046e-01 2.240800000000000014e-01 8.176899999999999447e-02 9.271400000000000474e-02 7.826980000000000048e-01 -1.697660000000000002e-01 -3.021499999999999880e-02 1.677359999999999962e-01 1.554470000000000018e-01 1.138229999999999936e-01 2.527679999999999927e-01 1.060490000000000044e-01 2.570069999999999855e-01 2.010699999999999987e-02 -7.221700000000000341e-02 1.460740000000000094e-01 6.081299999999999900e-02 1.454630000000000090e-01 -4.033050000000000246e-01 -7.305899999999999894e-02 -3.348700000000000010e-01 -2.885190000000000254e-01 2.165310000000000012e-01 -7.964599999999999458e-02 -1.697269999999999890e-01 3.706940000000000235e-01 2.334140000000000104e-01 -1.563499999999999959e-02 -8.635999999999999580e-03 -1.898199999999999887e-02 7.728899999999999659e-02 -1.306099999999999969e-02 -5.248699999999999893e-02 -1.257830000000000059e-01 -3.546880000000000033e-01 -4.414499999999999674e-02 -2.904999999999999943e-02 -3.809159999999999768e-01 -4.439599999999999796e-02 3.540499999999999897e-02 -6.839169999999999972e-01 9.350999999999999937e-03 5.803799999999999931e-02 -3.060220000000000162e-01 -1.943290000000000017e-01 -4.147100000000000092e-02 -2.573929999999999829e-01 -4.365479999999999916e-01 -2.464799999999999977e-02 5.769300000000000123e-02 1.774699999999999889e-01 -2.763419999999999765e-01 -4.903799999999999826e-02 2.351709999999999912e-01 2.644730000000000136e-01 -8.504499999999999560e-02
3.518600000000000200e-02 2.991300000000000070e-01 5.093799999999999717e-02 3.342760000000000176e-01 1.144550000000000012e-01 2.430440000000000100e-01 1.043140000000000039e-01 1.069350000000000023e-01 8.988730000000000331e-01 -1.978699999999999903e-01 -4.090799999999999992e-02 1.734489999999999921e-01 1.866089999999999971e-01 1.398129999999999928e-01 2.398839999999999861e-01 1.298700000000000132e-01 3.211100000000000065e-01 -4.521200000000000219e-02 -8.511299999999999422e-02 1.802580000000000016e-01 8.245999999999999858e-03 1.783440000000000025e-01 -4.876110000000000166e-01 -1.593440000000000134e-01 -4.052200000000000246e-01 -3.383059999999999956e-01 2.159069999999999878e-01 -9.748199999999999921e-02 -1.941539999999999933e-01 4.013590000000000213e-01 2.758669999999999733e-01 -1.348099999999999993e-02 -4.678399999999999920e-02 -2.642999999999999863e-02 9.554100000000000092e-02 -5.270500000000000185e-02 -6.817399999999999849e-02 -1.489759999999999973e-01 -3.761419999999999764e-01 -5.697200000000000181e-02 -3.390499999999999764e-02 -4.042330000000000090e-01 -5.723700000000000315e-02 4.350799999999999806e-02 -7.598789999999999711e-01 7.335999999999999639e-03 7.077400000000000357e-02 -3.172849999999999837e-01 -2.302240000000000120e-01 -5.312399999999999761e-02 -2.293729999999999936e-01 -5.295239999999999947e-01 -3.081899999999999917e-02 1.556160000000000043e-01 2.132320000000000049e-01 -3.445520000000000249e-01 2.532200000000000076e-02 2.886770000000000169e-01 3.137449999999999961e-01 -2.060700000000000032e-02
4.394100000000000089e-02 3.380230000000000179e-01 4.168999999999999789e-02 3.919349999999999778e-01 1.275820000000000010e-01 2.620199999999999751e-01 1.275550000000000017e-01 1.214739999999999986e-01 1.009994000000000058e+00 -2.249539999999999873e-01 -5.148699999999999805e-02 1.784850000000000048e-01 2.167949999999999877e-01 1.652939999999999965e-01 2.266970000000000096e-01 1.542229999999999990e-01 3.876399999999999846e-01 -1.118999999999999995e-01 -9.745099999999999596e-02 2.144590000000000107e-01 -4.368299999999999961e-02 2.114020000000000066e-01 -5.729199999999999848e-01 -2.472499999999999976e-01 -4.746190000000000131e-01 -3.864819999999999922e-01 2.132010000000000016e-01 -1.150280000000000052e-01 -2.171339999999999937e-01 4.293299999999999894e-01 3.169819999999999860e-01 -1.090799999999999929e-02 -8.487500000000000600e-02 -3.408599999999999824e-02 1.127329999999999999e-01 -9.225500000000000367e-02 -8.438800000000000467e-02 -1.717819999999999903e-01 -3.974659999999999860e-01 -6.973200000000000232e-02 -3.884399999999999659e-02 -4.263100000000000223e-01 -6.988600000000000367e-02 5.151399999999999729e-02 -8.317489999999999606e-01 5.220999999999999946e-03 8.334400000000000142e-02 -3.278220000000000023e-01 -2.653010000000000090e-01 -6.424799999999999955e-02 -2.009160000000000112e-01 -6.243900000000000006e-01 -3.588399999999999923e-02 2.553329999999999766e-01 2.482789999999999997e-01 -4.154780000000000140e-01 1.012740000000000029e-01 3.434789999999999788e-01 3.628419999999999979e-01 4.448599999999999777e-02
5.246499999999999775e-02 3.748380000000000045e-01 3.243299999999999655e-02 4.479730000000000101e-01 1.401600000000000068e-01 2.796989999999999754e-01 1.508970000000000034e-01 1.359509999999999885e-01 1.114195000000000046e+00 -2.506140000000000034e-01 -6.168699999999999878e-02 1.817269999999999996e-01 2.460239999999999927e-01 1.903990000000000127e-01 2.132429999999999881e-01 1.788659999999999972e-01 4.566189999999999971e-01 -1.797390000000000099e-01 -1.092540000000000039e-01 2.486379999999999979e-01 -9.571499999999999453e-02 2.444129999999999914e-01 -6.591310000000000224e-01 -3.365839999999999943e-01 -5.423679999999999612e-01 -4.328400000000000025e-01 2.100110000000000032e-01 -1.321680000000000077e-01 -2.386230000000000018e-01 4.557550000000000212e-01 3.563760000000000261e-01 -7.908000000000000099e-03 -1.212830000000000019e-01 -4.186399999999999844e-02 1.287470000000000003e-01 -1.299949999999999994e-01 -1.009810000000000013e-01 -1.942200000000000037e-01 -4.167969999999999731e-01 -8.246000000000000552e-02 -4.379500000000000060e-02 -4.456209999999999893e-01 -8.222000000000000142e-02 5.937499999999999722e-02 -8.977910000000000057e-01 3.078000000000000007e-03 9.564699999999999591e-02 -3.357780000000000209e-01 -2.994319999999999760e-01 -7.457700000000000440e-02 -1.709390000000000076e-01 -7.198809999999999931e-01 -4.014000000000000207e-02 3.569660000000000055e-01 2.822779999999999734e-01 -4.883290000000000131e-01 1.793889999999999929e-01 3.989429999999999921e-01 4.112779999999999769e-01 1.108579999999999982e-01
6.081799999999999706e-02 4.094079999999999941e-01 2.122100000000000028e-02 5.028329999999999744e-01 1.521139999999999992e-01 2.940269999999999828e-01 1.744549999999999990e-01 1.500509999999999899e-01 1.209222000000000019e+00 -2.750909999999999744e-01 -7.148300000000000487e-02 1.806379999999999930e-01 2.745119999999999783e-01 2.150130000000000097e-01 1.959500000000000131e-01 2.037329999999999974e-01 5.274140000000000494e-01 -2.516860000000000208e-01 -1.205180000000000001e-01 2.823350000000000026e-01 -1.502979999999999872e-01 2.769499999999999740e-01 -7.454290000000000083e-01 -4.297540000000000249e-01 -6.083429999999999671e-01 -4.775159999999999960e-01 2.071359999999999868e-01 -1.489790000000000003e-01 -2.589230000000000143e-01 4.810789999999999789e-01 3.939659999999999829e-01 -4.413000000000000256e-03 -1.557330000000000103e-01 -4.967599999999999794e-02 1.436429999999999929e-01 -1.657369999999999954e-01 -1.180630000000000013e-01 -2.160839999999999983e-01 -4.336709999999999732e-01 -9.489000000000000212e-02 -4.879000000000000004e-02 -4.616089999999999915e-01 -9.406899999999999984e-02 6.708899999999999586e-02 -9.581169999999999964e-01 7.169999999999999724e-04 1.077660000000000007e-01 -3.405270000000000241e-01 -3.325350000000000250e-01 -8.436200000000000643e-02 -1.402390000000000025e-01 -8.158229999999999649e-01 -4.354000000000000231e-02 4.591830000000000078e-01 3.151030000000000220e-01 -5.628450000000000397e-01 2.585629999999999873e-01 4.550359999999999960e-01 4.590870000000000228e-01 1.777370000000000061e-01
6.880000000000000004e-02 4.419870000000000188e-01 1.076399999999999926e-02 5.559319999999999817e-01 1.633900000000000075e-01 3.081209999999999782e-01 1.976930000000000076e-01 1.634549999999999892e-01 1.297590999999999939e+00 -2.980570000000000164e-01 -8.087099999999999844e-02 1.785380000000000023e-01 3.020090000000000274e-01 2.389870000000000050e-01 1.792809999999999959e-01 2.287480000000000069e-01 5.996839999999999948e-01 -3.231870000000000021e-01 -1.311869999999999981e-01 3.155529999999999724e-01 -2.033409999999999940e-01 3.087730000000000197e-01 -8.313570000000000126e-01 -5.219059999999999810e-01 -6.713569999999999816e-01 -5.197840000000000238e-01 2.038760000000000017e-01 -1.653409999999999880e-01 -2.778619999999999979e-01 5.042900000000000160e-01 4.292489999999999917e-01 -3.730000000000000134e-04 -1.886220000000000119e-01 -5.742900000000000088e-02 1.570360000000000089e-01 -1.997500000000000109e-01 -1.356100000000000083e-01 -2.375259999999999871e-01 -4.488369999999999860e-01 -1.071870000000000045e-01 -5.379799999999999860e-02 -4.751589999999999980e-01 -1.053390000000000021e-01 7.484799999999999787e-02 -1.013236000000000026e+00 -1.657999999999999969e-03 1.195650000000000046e-01 -3.425719999999999876e-01 -3.645439999999999792e-01 -9.321599999999999331e-02 -1.085770000000000068e-01 -9.113999999999999879e-01 -4.671700000000000158e-02 5.617910000000000403e-01 3.467520000000000047e-01 -6.386420000000000430e-01 3.384599999999999831e-01 5.114600000000000257e-01 5.058939999999999548e-01 2.447539999999999993e-01
7.647800000000000431e-02 4.725059999999999816e-01 1.276999999999999923e-03 6.071569999999999467e-01 1.739549999999999985e-01 3.219960000000000044e-01 2.204579999999999873e-01 1.760549999999999893e-01 1.379032999999999953e+00 -3.196100000000000052e-01 -8.974500000000000532e-02 1.751350000000000129e-01 3.283659999999999912e-01 2.624839999999999951e-01 1.623080000000000078e-01 2.541809999999999903e-01 6.729859999999999731e-01 -3.945910000000000251e-01 -1.410970000000000002e-01 3.481119999999999770e-01 -2.555259999999999754e-01 3.394760000000000000e-01 -9.162409999999999721e-01 -6.130700000000000038e-01 -7.310769999999999769e-01 -5.596259999999999568e-01 2.003989999999999938e-01 -1.812489999999999934e-01 -2.955610000000000182e-01 5.250730000000000119e-01 4.619380000000000153e-01 4.373000000000000151e-03 -2.202749999999999986e-01 -6.503299999999999359e-02 1.689350000000000018e-01 -2.323070000000000135e-01 -1.535630000000000051e-01 -2.584110000000000018e-01 -4.634579999999999811e-01 -1.191640000000000060e-01 -5.870700000000000224e-02 -4.875840000000000174e-01 -1.159639999999999976e-01 8.250899999999999901e-02 -1.064197999999999977e+00 -4.177000000000000157e-03 1.309659999999999991e-01 -3.429280000000000106e-01 -3.952260000000000217e-01 -1.011559999999999959e-01 -7.697600000000000275e-02 -1.005694000000000088e+00 -4.971199999999999924e-02 6.630179999999999962e-01 3.768630000000000035e-01 -7.150339999999999474e-01 4.176119999999999832e-01 5.675900000000000389e-01 5.513099999999999667e-01 3.107280000000000042e-01
8.379699999999999649e-02 5.010689999999999866e-01 -9.096999999999999184e-03 6.562109999999999888e-01 1.837999999999999912e-01 3.335870000000000224e-01 2.423329999999999929e-01 1.877320000000000100e-01 1.451392999999999933e+00 -3.397780000000000244e-01 -9.806199999999999639e-02 1.689950000000000063e-01 3.534930000000000017e-01 2.852649999999999908e-01 1.446429999999999938e-01 2.798050000000000259e-01 7.464169999999999972e-01 -4.659579999999999833e-01 -1.503220000000000112e-01 3.797400000000000220e-01 -3.071510000000000074e-01 3.684419999999999917e-01 -9.991200000000000081e-01 -7.027569999999999650e-01 -7.870509999999999451e-01 -5.967869999999999564e-01 1.975190000000000001e-01 -1.966809999999999947e-01 -3.121499999999999830e-01 5.439199999999999591e-01 4.919760000000000244e-01 9.851000000000000381e-03 -2.501950000000000007e-01 -7.244100000000000539e-02 1.792189999999999894e-01 -2.629009999999999958e-01 -1.719999999999999862e-01 -2.787999999999999923e-01 -4.761340000000000017e-01 -1.308640000000000081e-01 -6.358300000000000063e-02 -4.974350000000000160e-01 -1.258420000000000094e-01 9.025600000000000289e-02 -1.110101999999999922e+00 -6.764000000000000047e-03 1.420069999999999943e-01 -3.400460000000000149e-01 -4.246860000000000079e-01 -1.082369999999999999e-01 -4.479600000000000248e-02 -1.098154000000000075e+00 -5.285200000000000314e-02 7.628800000000000026e-01 4.056159999999999766e-01 -7.915510000000000046e-01 4.962880000000000069e-01 6.232590000000000074e-01 5.952779999999999738e-01 3.759370000000000211e-01
9.066000000000000447e-02 5.279089999999999616e-01 -2.159300000000000108e-02 7.030189999999999495e-01 1.928279999999999994e-01 3.420949999999999824e-01 2.633159999999999945e-01 1.983890000000000098e-01 1.513638999999999957e+00 -3.586159999999999903e-01 -1.057560000000000028e-01 1.583880000000000010e-01 3.775569999999999760e-01 3.074970000000000203e-01 1.242889999999999967e-01 3.057830000000000270e-01 8.194949999999999735e-01 -5.390220000000000011e-01 -1.587719999999999965e-01 4.102450000000000263e-01 -3.602469999999999839e-01 3.951770000000000005e-01 -1.079353999999999925e+00 -7.924609999999999710e-01 -8.388689999999999758e-01 -6.312860000000000138e-01 1.968550000000000022e-01 -2.118029999999999913e-01 -3.277649999999999730e-01 5.618229999999999613e-01 5.190550000000000441e-01 1.629099999999999993e-02 -2.772870000000000057e-01 -7.946300000000000585e-02 1.879740000000000022e-01 -2.902839999999999865e-01 -1.909490000000000076e-01 -2.984720000000000151e-01 -4.862730000000000108e-01 -1.420980000000000021e-01 -6.840699999999999559e-02 -5.043900000000000050e-01 -1.347780000000000089e-01 9.800799999999999790e-02 -1.150234999999999896e+00 -9.546999999999999931e-03 1.526969999999999994e-01 -3.330949999999999744e-01 -4.525669999999999971e-01 -1.144369999999999971e-01 -1.236899999999999979e-02 -1.187410999999999994e+00 -5.641600000000000087e-02 8.599689999999999834e-01 4.326439999999999730e-01 -8.672130000000000116e-01 5.733289999999999775e-01 6.776210000000000289e-01 6.372370000000000534e-01 4.397499999999999742e-01
9.712899999999999312e-02 5.529899999999999816e-01 -3.274500000000000327e-02 7.471719999999999473e-01 2.010059999999999902e-01 3.507120000000000237e-01 2.829729999999999746e-01 2.077970000000000095e-01 1.568462000000000023e+00 -3.759279999999999844e-01 -1.128949999999999954e-01 1.469959999999999878e-01 4.005270000000000219e-01 3.290890000000000204e-01 1.052280000000000021e-01 3.319349999999999801e-01 8.913210000000000299e-01 -6.085420000000000273e-01 -1.661900000000000044e-01 4.395669999999999855e-01 -4.101389999999999758e-01 4.192460000000000075e-01 -1.155934999999999935e+00 -8.767690000000000206e-01 -8.855680000000000218e-01 -6.627079999999999638e-01 1.969289999999999929e-01 -2.264079999999999981e-01 -3.423709999999999809e-01 5.769670000000000076e-01 5.427699999999999747e-01 2.360200000000000145e-02 -3.032139999999999835e-01 -8.608100000000000473e-02 1.950349999999999862e-01 -3.159939999999999971e-01 -2.103790000000000104e-01 -3.176640000000000019e-01 -4.952019999999999755e-01 -1.530440000000000134e-01 -7.308399999999999619e-02 -5.099470000000000391e-01 -1.427660000000000040e-01 1.059019999999999961e-01 -1.185569000000000095e+00 -1.241300000000000042e-02 1.628469999999999918e-01 -3.233449999999999935e-01 -4.789080000000000004e-01 -1.193250000000000005e-01 2.019900000000000168e-02 -1.272354999999999903e+00 -6.136099999999999888e-02 9.535310000000000175e-01 4.578840000000000132e-01 -9.412099999999999911e-01 6.479949999999999877e-01 7.301769999999999650e-01 6.768480000000000052e-01 5.015570000000000306e-01
1.032259999999999983e-01 5.760469999999999757e-01 -4.361899999999999805e-02 7.886440000000000117e-01 2.081300000000000094e-01 3.582750000000000101e-01 3.012199999999999878e-01 2.157870000000000066e-01 1.614144999999999941e+00 -3.914610000000000034e-01 -1.194540000000000046e-01 1.332979999999999998e-01 4.223469999999999724e-01 3.500909999999999855e-01 8.678700000000000303e-02 3.585929999999999951e-01 9.618269999999999875e-01 -6.753059999999999619e-01 -1.726270000000000027e-01 4.673370000000000024e-01 -4.577800000000000202e-01 4.401490000000000125e-01 -1.228213999999999917e+00 -9.556729999999999947e-01 -9.267980000000000107e-01 -6.909079999999999666e-01 1.980699999999999961e-01 -2.405710000000000071e-01 -3.559419999999999806e-01 5.890950000000000353e-01 5.630199999999999649e-01 3.195300000000000223e-02 -3.282120000000000037e-01 -9.221600000000000630e-02 2.002359999999999973e-01 -3.404849999999999821e-01 -2.302970000000000017e-01 -3.362089999999999801e-01 -5.046370000000000022e-01 -1.634510000000000129e-01 -7.752299999999999469e-02 -5.158310000000000395e-01 -1.497040000000000037e-01 1.138460000000000027e-01 -1.218172000000000033e+00 -1.548300000000000023e-02 1.724749999999999894e-01 -3.124640000000000195e-01 -5.037169999999999703e-01 -1.232729999999999937e-01 5.188099999999999656e-02 -1.352764999999999995e+00 -6.787700000000000677e-02 1.041757999999999962e+00 4.813899999999999846e-01 -1.013166000000000011e+00 7.187970000000000192e-01 7.808049999999999713e-01 7.141140000000000265e-01 5.601549999999999585e-01
1.087650000000000006e-01 5.977590000000000403e-01 -5.584900000000000281e-02 8.273589999999999556e-01 2.144129999999999925e-01 3.633370000000000211e-01 3.176479999999999859e-01 2.223040000000000016e-01 1.650263000000000035e+00 -4.054519999999999791e-01 -1.254810000000000092e-01 1.163939999999999975e-01 4.425760000000000249e-01 3.702460000000000195e-01 6.782699999999999840e-02 3.850939999999999919e-01 1.028955999999999982e+00 -7.394490000000000229e-01 -1.780950000000000033e-01 4.933029999999999915e-01 -5.038759999999999906e-01 4.572470000000000145e-01 -1.294629000000000030e+00 -1.028998999999999997e+00 -9.622279999999999722e-01 -7.158419999999999783e-01 2.026399999999999868e-01 -2.543360000000000065e-01 -3.687619999999999787e-01 5.999900000000000233e-01 5.796280000000000321e-01 4.132700000000000262e-02 -3.505499999999999727e-01 -9.774599999999999955e-02 2.036979999999999902e-01 -3.615050000000000208e-01 -2.508779999999999899e-01 -3.542390000000000261e-01 -5.113750000000000240e-01 -1.734660000000000091e-01 -8.186200000000000421e-02 -5.188190000000000301e-01 -1.554540000000000088e-01 1.221170000000000033e-01 -1.244612999999999969e+00 -1.870300000000000087e-02 1.816969999999999974e-01 -2.966110000000000135e-01 -5.267730000000000468e-01 -1.260900000000000076e-01 8.402800000000000546e-02 -1.426803000000000043e+00 -7.645899999999999919e-02 1.124986000000000042e+00 5.030310000000000059e-01 -1.081677999999999917e+00 7.862130000000000507e-01 8.285900000000000487e-01 7.484709999999999974e-01 6.163220000000000365e-01
1.139580000000000037e-01 6.176540000000000363e-01 -7.239800000000000402e-02 8.633490000000000331e-01 2.194969999999999977e-01 3.627549999999999941e-01 3.323229999999999795e-01 2.270159999999999956e-01 1.671929999999999916e+00 -4.178359999999999852e-01 -1.308130000000000126e-01 9.241699999999999915e-02 4.614849999999999786e-01 3.896959999999999869e-01 4.490899999999999753e-02 4.120249999999999746e-01 1.092200999999999977e+00 -8.033689999999999998e-01 -1.825390000000000068e-01 5.171879999999999811e-01 -5.515139999999999487e-01 4.697000000000000064e-01 -1.354297000000000084e+00 -1.098904000000000103e+00 -9.918160000000000309e-01 -7.376489999999999991e-01 2.128400000000000014e-01 -2.678710000000000258e-01 -3.810470000000000246e-01 6.111680000000000446e-01 5.926310000000000189e-01 5.194599999999999912e-02 -3.688660000000000272e-01 -1.025739999999999985e-01 2.055800000000000127e-01 -3.775399999999999867e-01 -2.722280000000000255e-01 -3.716809999999999836e-01 -5.126680000000000126e-01 -1.829220000000000013e-01 -8.618900000000000172e-02 -5.160900000000000487e-01 -1.599409999999999998e-01 1.307790000000000064e-01 -1.262092999999999909e+00 -2.218399999999999886e-02 1.905389999999999862e-01 -2.728119999999999989e-01 -5.478129999999999944e-01 -1.277290000000000092e-01 1.181979999999999975e-01 -1.493155999999999928e+00 -8.745999999999999608e-02 1.203824999999999923e+00 5.226619999999999600e-01 -1.145758999999999972e+00 8.509079999999999977e-01 8.727740000000000498e-01 7.794170000000000265e-01 6.709800000000000209e-01
1.186569999999999986e-01 6.359900000000000553e-01 -8.942899999999999461e-02 8.963419999999999721e-01 2.233940000000000092e-01 3.605900000000000216e-01 3.447509999999999741e-01 2.299779999999999880e-01 1.683013000000000092e+00 -4.286650000000000182e-01 -1.354219999999999868e-01 6.536500000000000643e-02 4.787429999999999741e-01 4.083649999999999780e-01 2.275900000000000145e-02 4.390339999999999798e-01 1.150490000000000013e+00 -8.624450000000000172e-01 -1.857240000000000002e-01 5.388659999999999561e-01 -5.965160000000000462e-01 4.774249999999999883e-01 -1.406236000000000042e+00 -1.160436000000000023e+00 -1.014531999999999989e+00 -7.558319999999999483e-01 2.260669999999999902e-01 -2.809760000000000035e-01 -3.925629999999999953e-01 6.197059999999999791e-01 6.015460000000000251e-01 6.378399999999999348e-02 -3.859110000000000040e-01 -1.066280000000000006e-01 2.055780000000000107e-01 -3.912829999999999919e-01 -2.943459999999999965e-01 -3.885719999999999730e-01 -5.136319999999999775e-01 -1.918890000000000040e-01 -9.028899999999999426e-02 -5.130540000000000100e-01 -1.630989999999999940e-01 1.398729999999999973e-01 -1.275427000000000088e+00 -2.590299999999999894e-02 1.988560000000000050e-01 -2.461359999999999937e-01 -5.669459999999999500e-01 -1.281339999999999979e-01 1.513799999999999868e-01 -1.551203000000000110e+00 -1.017300000000000010e-01 1.274691999999999936e+00 5.402339999999999920e-01 -1.204431999999999947e+00 9.091799999999999882e-01 9.129580000000000473e-01 8.067790000000000239e-01 7.209219999999999517e-01