1.768899999999999917e+00 2.007169999999999899e+00 1.080649999999999977e+01 -9.195499999999999785e-01 5.435929999999999929e+00 1.122330000000000005e+01 6.062039999999999651e+00 1.915070000000000050e+00 1.133610000000000007e+01 3.392329999999999846e+00 5.908509999999999707e+00 1.144239999999999924e+01 2.040360000000000174e+00 3.881600000000000050e-01 1.487850000000000072e+01 -1.444499999999999951e-01 3.998889999999999834e+00 1.704560000000000031e+01 5.844750000000000334e+00 8.961500000000000021e-01 1.547369999999999912e+01 4.324089999999999989e+00 4.541269999999999918e+00 1.695029999999999859e+01 -2.579899999999999971e-01 5.379599999999999937e-01 9.898379999999999512e+00 5.139739999999999753e+00 4.025540000000000340e+00 1.018210000000000015e+01 3.757210000000000161e+00 6.453100000000000502e-01 9.757609999999999673e+00 1.298570000000000002e+00 4.394099999999999895e+00 9.978180000000000049e+00 -2.592429999999999790e+00 5.697659999999999947e+00 1.319650000000000034e+01 6.092139999999999667e+00 3.342319999999999958e+00 1.521920000000000073e+01 1.211910000000000043e+00 7.052800000000000402e+00 1.288659999999999961e+01 2.098599999999999799e+00 2.567899999999999849e+00 1.336180000000000057e+01 2.488200000000000134e-01 4.340999999999999720e-02 1.661680000000000135e+01 -1.873580000000000023e+00 4.328979999999999606e+00 1.883079999999999998e+01 -3.037699999999999845e-01 6.980439999999999756e+00 1.661550000000000082e+01 2.332500000000000018e+00 3.079549999999999788e+00 1.690129999999999910e+01
2.765979999999999883e+00 1.944800000000000084e+00 1.133159999999999989e+01 6.933000000000000274e-01 5.178440000000000154e+00 1.121649999999999991e+01 -9.772100000000000231e-01 1.943789999999999907e+00 1.087199999999999989e+01 5.103100000000000414e+00 5.130150000000000432e+00 1.115980000000000061e+01 7.274199999999999555e-01 6.927200000000000024e-01 1.686380000000000123e+01 -1.609150000000000080e+00 3.979099999999999859e+00 1.465530000000000044e+01 5.280569999999999986e+00 5.298599999999999977e-01 1.687500000000000000e+01 2.850420000000000176e+00 4.563850000000000406e+00 1.685330000000000084e+01 1.028650000000000064e+00 4.545199999999999796e-01 9.861539999999999750e+00 -1.102330000000000032e+00 4.257939999999999614e+00 9.541969999999999175e+00 4.916479999999999961e+00 7.163599999999999968e-01 1.012219999999999942e+01 2.793140000000000178e+00 4.293829999999999814e+00 9.888640000000000541e+00 2.920580000000000176e+00 6.616679999999999673e+00 1.500869999999999926e+01 5.215600000000000236e-01 2.749410000000000132e+00 1.289620000000000033e+01 -1.080940000000000012e+00 6.121050000000000324e+00 1.311839999999999939e+01 4.409019999999999939e+00 3.307830000000000048e+00 1.299419999999999931e+01 2.994720000000000049e+00 6.644899999999999807e+00 1.869359999999999999e+01 5.140220000000000233e+00 3.212930000000000064e+00 1.698959999999999937e+01 -1.199759999999999938e+00 6.269759999999999778e+00 1.684100000000000108e+01 7.142300000000000315e-01 3.285579999999999945e+00 1.646359999999999957e+01
2.307830000000000048e+00 2.104369999999999852e+00 1.125510000000000055e+01 4.334999999999999964e-02 5.890150000000000219e+00 1.134689999999999976e+01 6.220570000000000377e+00 1.976290000000000102e+00 1.101939999999999920e+01 4.355520000000000280e+00 5.405809999999999782e+00 1.105969999999999942e+01 1.388609999999999900e+00 4.561799999999999744e-01 1.492109999999999914e+01 -1.033169999999999922e+00 4.316029999999999589e+00 1.710099999999999909e+01 5.315540000000000376e+00 7.848800000000000221e-01 1.544159999999999933e+01 3.383309999999999818e+00 3.843869999999999898e+00 1.712600000000000122e+01 5.476199999999999957e-01 5.966599999999999682e-01 1.012390000000000079e+01 -1.621140000000000025e+00 4.091849999999999987e+00 9.449149999999999494e+00 4.102219999999999978e+00 7.046400000000000441e-01 9.712839999999999918e+00 2.063590000000000035e+00 4.456209999999999560e+00 9.937279999999999447e+00 -1.949100000000000055e+00 5.240669999999999717e+00 1.285810000000000031e+01 5.181549999999999656e+00 3.423560000000000159e+00 1.534370000000000012e+01 6.150680000000000369e+00 1.527399999999999869e-01 1.286749999999999972e+01 2.113179999999999836e+00 2.627240000000000020e+00 1.354449999999999932e+01 3.268060000000000187e+00 6.756000000000000227e+00 1.664969999999999928e+01 5.208009999999999806e+00 3.361330000000000151e+00 1.885750000000000171e+01 -5.822800000000000198e-01 6.978909999999999947e+00 1.688449999999999918e+01 1.041570000000000107e+00 2.690150000000000041e+00 1.704990000000000094e+01
3.013619999999999965e+00 1.945889999999999898e+00 1.122990000000000066e+01 6.388399999999999634e-01 5.195129999999999804e+00 1.099949999999999939e+01 -1.131189999999999918e+00 2.034349999999999881e+00 1.110200000000000031e+01 -2.917419999999999902e+00 5.072099999999999831e+00 1.133200000000000074e+01 4.123600000000000043e-01 4.586100000000000176e-01 1.674330000000000140e+01 -1.088810000000000056e+00 4.117939999999999934e+00 1.458500000000000085e+01 5.002970000000000361e+00 5.401200000000000445e-01 1.677909999999999968e+01 2.963260000000000005e+00 4.345270000000000188e+00 1.691209999999999880e+01 9.516999999999999904e-01 6.977999999999999758e-01 1.005920000000000059e+01 -1.143410000000000037e+00 4.122889999999999944e+00 9.444580000000000197e+00 4.979210000000000136e+00 6.666999999999999593e-01 9.811450000000000671e+00 3.127800000000000136e+00 4.244369999999999976e+00 9.932499999999999218e+00 2.829400000000000137e+00 6.397969999999999935e+00 1.505509999999999948e+01 8.518900000000000361e-01 3.211800000000000210e+00 1.286700000000000088e+01 -1.170050000000000034e+00 6.287930000000000241e+00 1.294469999999999921e+01 5.050040000000000084e+00 2.890660000000000007e+00 1.318510000000000026e+01 2.823929999999999829e+00 6.424570000000000114e+00 1.863619999999999877e+01 5.187949999999999839e+00 3.050040000000000084e+00 1.692940000000000111e+01 -1.283770000000000078e+00 5.966099999999999959e+00 1.675809999999999889e+01 5.133100000000000440e-01 3.106809999999999850e+00 1.700649999999999906e+01
2.477949999999999875e+00 1.446930000000000049e+00 1.138310000000000066e+01 2.486899999999999944e-01 4.915700000000000180e+00 1.130000000000000071e+01 6.147230000000000416e+00 1.796140000000000070e+00 1.134559999999999924e+01 4.229350000000000165e+00 4.940249999999999808e+00 1.160040000000000049e+01 1.240960000000000063e+00 9.018000000000000460e-01 1.637069999999999936e+01 -5.084199999999999831e-01 4.327899999999999636e+00 1.495030000000000037e+01 5.707069999999999865e+00 7.756399999999999961e-01 1.620730000000000004e+01 3.640260000000000051e+00 4.716520000000000046e+00 1.625189999999999912e+01 2.018199999999999994e-01 4.248500000000000054e-01 1.036289999999999978e+01 -1.847210000000000019e+00 4.098499999999999588e+00 1.005969999999999942e+01 4.494629999999999903e+00 2.591899999999999760e-01 9.934430000000000760e+00 2.351189999999999891e+00 3.801740000000000119e+00 1.000939999999999941e+01 3.538710000000000022e+00 6.783960000000000434e+00 1.456809999999999938e+01 2.524399999999999977e-01 2.625230000000000175e+00 1.300910000000000011e+01 -7.988899999999999890e-01 6.327239999999999753e+00 1.339899999999999913e+01 4.362680000000000113e+00 2.766020000000000145e+00 1.321979999999999933e+01 3.532259999999999955e+00 6.694020000000000081e+00 1.798260000000000147e+01 5.891460000000000363e+00 3.330639999999999823e+00 1.676719999999999899e+01 -5.213499999999999801e-01 6.633370000000000211e+00 1.696539999999999893e+01 1.329369999999999941e+00 3.545910000000000117e+00 1.675019999999999953e+01
3.258020000000000138e+00 1.241980000000000084e+00 1.097850000000000037e+01 1.410709999999999908e+00 4.546829999999999927e+00 1.080349999999999966e+01 -8.056699999999999973e-01 1.566300000000000026e+00 1.084830000000000005e+01 -2.615219999999999878e+00 4.708789999999999587e+00 1.128309999999999924e+01 -1.289299999999999891e-01 1.105499999999999927e+00 1.698999999999999844e+01 -4.923199999999999799e-01 3.860770000000000035e+00 1.422840000000000060e+01 4.379109999999999836e+00 1.109019999999999895e+00 1.722569999999999979e+01 2.407099999999999795e+00 4.945859999999999701e+00 1.699830000000000041e+01 1.147310000000000052e+00 1.716399999999999870e-01 9.707140000000000768e+00 -7.234800000000000120e-01 3.852440000000000087e+00 9.459559999999999746e+00 5.462100000000000399e+00 5.872000000000000136e-02 9.710179999999999367e+00 3.595099999999999962e+00 3.547470000000000123e+00 9.661730000000000373e+00 6.175270000000000259e+00 7.749000000000000332e-02 1.536739999999999995e+01 1.951719999999999899e+00 3.370769999999999822e+00 1.317200000000000060e+01 -1.143329999999999957e+00 6.168879999999999697e+00 1.310899999999999999e+01 5.841160000000000352e+00 2.527420000000000222e+00 1.288359999999999950e+01 6.176389999999999603e+00 6.239999999999999887e-03 1.885259999999999891e+01 4.536179999999999879e+00 3.664229999999999876e+00 1.698389999999999844e+01 -1.836519999999999930e+00 6.683189999999999742e+00 1.736370000000000147e+01 -2.508699999999999819e-01 3.623139999999999805e+00 1.683480000000000132e+01
3.464059999999999917e+00 1.262029999999999985e+00 1.131409999999999982e+01 1.773449999999999971e+00 4.295720000000000205e+00 1.097010000000000041e+01 7.444650000000000212e+00 1.310519999999999907e+00 1.088470000000000049e+01 -2.318020000000000191e+00 4.430939999999999657e+00 1.096260000000000012e+01 -4.508199999999999985e-01 1.168099999999999916e+00 1.716400000000000148e+01 -1.601899999999999991e-01 4.110260000000000247e+00 1.399559999999999960e+01 4.202960000000000029e+00 1.353480000000000016e+00 1.720039999999999836e+01 2.100709999999999855e+00 5.065349999999999575e+00 1.689859999999999829e+01 1.229409999999999892e+00 2.479600000000000137e-01 9.846159999999999357e+00 -2.130599999999999994e-01 3.445969999999999978e+00 9.614879999999999427e+00 1.592919999999999892e+00 6.763289999999999580e+00 9.751789999999999736e+00 3.849029999999999951e+00 3.451130000000000031e+00 9.656980000000000786e+00 5.941880000000000273e+00 1.966799999999999937e-01 1.528889999999999993e+01 2.280580000000000052e+00 3.255990000000000162e+00 1.332140000000000057e+01 -1.278899999999999926e+00 6.152899999999999814e+00 1.300520000000000032e+01 6.330499999999999794e+00 2.498559999999999892e+00 1.301529999999999987e+01 6.012039999999999829e+00 1.086000000000000021e-01 1.876549999999999940e+01 4.336430000000000007e+00 3.936129999999999907e+00 1.715719999999999956e+01 2.002060000000000173e+00 9.825000000000000400e-02 1.701450000000000173e+01 -1.723300000000000110e-01 3.891539999999999999e+00 1.661779999999999902e+01
2.663429999999999964e+00 1.588559999999999972e+00 1.124329999999999963e+01 7.511999999999999789e-01 5.231119999999999770e+00 1.109490000000000087e+01 -1.192309999999999981e+00 2.174139999999999961e+00 1.127929999999999922e+01 4.795390000000000263e+00 4.836619999999999919e+00 1.068970000000000020e+01 6.681300000000000017e-01 5.283099999999999463e-01 1.689949999999999974e+01 -1.036529999999999951e+00 4.471219999999999750e+00 1.449590000000000067e+01 5.225450000000000372e+00 4.065199999999999925e-01 1.692490000000000094e+01 2.980750000000000011e+00 4.211949999999999861e+00 1.694239999999999924e+01 6.173499999999999543e-01 5.083999999999999631e-01 9.952410000000000423e+00 -1.233179999999999943e+00 4.034779999999999589e+00 9.375049999999999883e+00 4.971790000000000376e+00 8.646300000000000097e-01 9.874959999999999738e+00 2.585900000000000087e+00 3.792400000000000215e+00 9.711430000000000007e+00 3.023960000000000203e+00 6.229610000000000092e+00 1.524140000000000050e+01 8.882900000000000240e-01 2.933409999999999851e+00 1.296330000000000027e+01 -3.506099999999999772e-01 6.730279999999999596e+00 1.314879999999999960e+01 5.226569999999999716e+00 3.513939999999999841e+00 1.296729999999999983e+01 3.086199999999999832e+00 6.311130000000000351e+00 1.872180000000000177e+01 5.326229999999999798e+00 2.948929999999999829e+00 1.675469999999999970e+01 -1.027479999999999949e+00 5.931720000000000326e+00 1.714069999999999894e+01 7.494300000000000406e-01 3.106199999999999850e+00 1.694219999999999970e+01
3.327970000000000095e+00 1.765009999999999968e+00 1.102139999999999986e+01 1.033109999999999973e+00 5.195109999999999673e+00 1.130489999999999995e+01 -7.622299999999999631e-01 2.002990000000000048e+00 1.107329999999999970e+01 -2.614259999999999806e+00 5.402269999999999683e+00 1.126580000000000048e+01 2.123599999999999932e-01 3.800899999999999834e-01 1.670400000000000063e+01 -1.226250000000000062e+00 4.187750000000000306e+00 1.455269999999999975e+01 4.782350000000000101e+00 4.860200000000000076e-01 1.691600000000000037e+01 2.389460000000000139e+00 4.341590000000000060e+00 1.695200000000000173e+01 1.134849999999999914e+00 5.610300000000000287e-01 9.660460000000000491e+00 -8.839900000000000535e-01 4.316930000000000156e+00 9.593659999999999854e+00 5.589769999999999683e+00 5.109599999999999698e-01 9.925119999999999720e+00 3.315510000000000179e+00 4.276570000000000427e+00 1.013439999999999941e+01 2.391840000000000188e+00 6.380840000000000067e+00 1.513700000000000045e+01 8.154400000000000537e-01 2.972630000000000106e+00 1.298070000000000057e+01 -9.206299999999999484e-01 6.594859999999999722e+00 1.304759999999999920e+01 5.082989999999999675e+00 3.242300000000000182e+00 1.285849999999999937e+01 2.597039999999999793e+00 6.424470000000000347e+00 1.869069999999999965e+01 4.711269999999999847e+00 3.148489999999999789e+00 1.694800000000000040e+01 -1.406130000000000102e+00 5.896989999999999732e+00 1.667610000000000170e+01 1.940000000000000058e-01 3.045240000000000169e+00 1.682189999999999941e+01
3.574580000000000091e+00 1.686490000000000045e+00 1.101409999999999911e+01 1.313460000000000072e+00 5.144700000000000273e+00 1.119880000000000031e+01 -2.747399999999999842e-01 1.612379999999999924e+00 1.087149999999999928e+01 -2.479530000000000012e+00 5.060649999999999871e+00 1.136560000000000059e+01 -3.601099999999999857e-01 8.976300000000000390e-01 1.694989999999999952e+01 -6.843299999999999939e-01 3.678500000000000103e+00 1.418979999999999997e+01 4.092389999999999972e+00 6.367300000000000182e-01 1.683419999999999916e+01 2.004700000000000149e+00 4.636499999999999844e+00 1.715099999999999980e+01 1.807500000000000107e+00 3.220399999999999929e-01 9.692310000000000869e+00 -5.335499999999999687e-01 4.018510000000000026e+00 9.797959999999999781e+00 5.752720000000000056e+00 5.498899999999999899e-01 9.734370000000000189e+00 3.495740000000000069e+00 4.154659999999999798e+00 1.000740000000000052e+01 2.167530000000000179e+00 6.634929999999999772e+00 1.524980000000000047e+01 1.483230000000000048e+00 2.671829999999999927e+00 1.296509999999999962e+01 -2.786500000000000088e-01 6.133589999999999876e+00 1.304599999999999937e+01 5.302260000000000417e+00 2.978099999999999969e+00 1.313090000000000046e+01 2.049300000000000122e+00 6.839959999999999596e+00 1.870670000000000144e+01 4.172640000000000349e+00 3.321689999999999809e+00 1.690299999999999869e+01 -2.098599999999999799e+00 6.389960000000000306e+00 1.676490000000000080e+01 -3.310100000000000264e-01 3.490050000000000097e+00 1.678859999999999886e+01
2.836869999999999781e+00 1.606570000000000054e+00 1.095260000000000034e+01 9.224400000000000377e-01 5.113229999999999720e+00 1.139669999999999916e+01 6.799610000000000376e+00 2.012770000000000170e+00 1.137470000000000070e+01 5.113990000000000258e+00 4.899420000000000108e+00 1.084239999999999959e+01 5.765799999999999814e-01 5.369500000000000384e-01 1.703209999999999980e+01 -9.394700000000000273e-01 4.214190000000000325e+00 1.448770000000000024e+01 5.344149999999999956e+00 4.782799999999999829e-01 1.668959999999999866e+01 3.131600000000000161e+00 4.201859999999999928e+00 1.687809999999999988e+01 6.716999999999999638e-01 4.847099999999999742e-01 9.923080000000000567e+00 -1.110679999999999890e+00 3.869740000000000180e+00 9.584059999999999135e+00 5.049229999999999663e+00 6.069499999999999895e-01 9.820809999999999818e+00 2.825969999999999871e+00 4.031240000000000379e+00 9.795049999999999812e+00 3.247489999999999988e+00 6.240059999999999718e+00 1.511389999999999922e+01 9.032200000000000228e-01 2.927690000000000126e+00 1.289310000000000045e+01 -5.400199999999999445e-01 6.687859999999999694e+00 1.318839999999999968e+01 5.226619999999999600e+00 3.419309999999999850e+00 1.307910000000000039e+01 3.067219999999999835e+00 6.307890000000000441e+00 1.865780000000000172e+01 5.479269999999999641e+00 3.123780000000000001e+00 1.685760000000000147e+01 -9.243799999999999795e-01 6.109329999999999927e+00 1.667970000000000041e+01 8.474000000000000421e-01 3.047499999999999876e+00 1.707929999999999993e+01
1.476189999999999891e+00 2.062429999999999986e+00 1.120930000000000071e+01 -3.106400000000000272e-01 5.828280000000000349e+00 1.141479999999999961e+01 5.612569999999999837e+00 1.912490000000000023e+00 1.092109999999999914e+01 4.091009999999999813e+00 5.676190000000000069e+00 1.078400000000000070e+01 1.721600000000000019e+00 4.187899999999999956e-01 1.508769999999999989e+01 -8.129100000000000215e-01 4.283739999999999881e+00 1.674540000000000006e+01 5.795440000000000147e+00 8.292500000000000426e-01 1.541220000000000034e+01 3.642510000000000137e+00 4.171409999999999840e+00 1.722220000000000084e+01 5.158999999999999697e-02 7.110400000000000054e-01 9.510109999999999175e+00 -1.679729999999999945e+00 4.251509999999999678e+00 9.840080000000000382e+00 3.574069999999999858e+00 7.156700000000000284e-01 9.876089999999999591e+00 1.769169999999999909e+00 4.478900000000000325e+00 1.017950000000000088e+01 -2.413780000000000037e+00 5.865289999999999893e+00 1.316859999999999964e+01 5.197720000000000340e+00 3.579619999999999802e+00 1.526449999999999996e+01 6.162010000000000431e+00 3.325699999999999767e-01 1.297990000000000066e+01 1.312519999999999909e+00 2.520249999999999879e+00 1.373249999999999993e+01 3.333540000000000170e+00 6.890060000000000073e+00 1.663929999999999865e+01 5.535479999999999734e+00 3.717789999999999928e+00 1.885249999999999915e+01 -6.551900000000000501e-01 7.089850000000000207e+00 1.683180000000000121e+01 1.397590000000000110e+00 3.051979999999999915e+00 1.709309999999999974e+01
3.023930000000000007e+00 1.203500000000000014e+00 1.126909999999999989e+01 1.134030000000000094e+00 4.456669999999999909e+00 1.098930000000000007e+01 6.873700000000000365e+00 1.523670000000000080e+00 1.104269999999999996e+01 -2.689550000000000107e+00 5.050580000000000069e+00 1.115939999999999976e+01 1.109699999999999992e-01 9.117499999999999494e-01 1.697090000000000032e+01 -6.533200000000000118e-01 3.933110000000000106e+00 1.422230000000000061e+01 4.513819999999999943e+00 1.338619999999999921e+00 1.705489999999999995e+01 2.226989999999999803e+00 4.945059999999999789e+00 1.681609999999999872e+01 9.645000000000000240e-01 3.409900000000000153e-01 9.745469999999999189e+00 -9.056800000000000406e-01 3.800219999999999931e+00 9.686749999999999972e+00 5.067359999999999864e+00 1.081000000000000016e-02 9.914479999999999293e+00 3.294610000000000039e+00 3.429009999999999891e+00 9.743800000000000239e+00 6.229070000000000107e+00 6.726999999999999647e-02 1.517960000000000065e+01 1.794529999999999959e+00 3.485790000000000166e+00 1.328229999999999933e+01 -1.390099999999999891e+00 6.301269999999999705e+00 1.327410000000000068e+01 5.109200000000000408e+00 2.638380000000000170e+00 1.280930000000000035e+01 6.350130000000000052e+00 3.225999999999999701e-02 1.869620000000000104e+01 4.679190000000000182e+00 3.893899999999999917e+00 1.689499999999999957e+01 -1.520790000000000086e+00 6.864679999999999893e+00 1.687229999999999919e+01 -5.041000000000000342e-02 3.685960000000000125e+00 1.676089999999999947e+01
1.464069999999999983e+00 1.314990000000000103e+00 1.131729999999999947e+01 -7.159499999999999753e-01 4.475150000000000183e+00 1.120299999999999940e+01 5.809319999999999595e+00 8.826800000000000201e-01 1.142800000000000082e+01 3.515680000000000138e+00 4.318450000000000344e+00 1.115840000000000032e+01 2.299840000000000106e+00 1.001130000000000075e+00 1.606980000000000075e+01 2.650100000000000233e-01 4.824150000000000382e+00 1.675069999999999837e+01 6.080969999999999764e+00 1.069080000000000030e+00 1.613190000000000168e+01 4.301859999999999573e+00 4.411520000000000330e+00 1.504320000000000057e+01 3.656239999999999934e+00 6.855690000000000062e+00 9.847039999999999793e+00 5.296149999999999913e+00 2.862810000000000077e+00 9.848209999999999908e+00 -4.174700000000000077e-01 6.868380000000000152e+00 1.024130000000000074e+01 1.443640000000000034e+00 3.540589999999999904e+00 9.853329999999999700e+00 -7.725600000000000245e-01 1.984240000000000004e+00 1.340830000000000055e+01 -2.689729999999999954e+00 5.464629999999999654e+00 1.285110000000000063e+01 3.780000000000000027e-01 6.542449999999999655e+00 1.475350000000000072e+01 2.793089999999999851e+00 2.533599999999999852e+00 1.344330000000000069e+01 -3.598590000000000177e+00 6.561829999999999607e+00 1.697070000000000078e+01 -1.913510000000000044e+00 3.573399999999999910e+00 1.715739999999999910e+01 4.666450000000000209e+00 1.620699999999999918e-01 1.810180000000000078e+01 2.522310000000000052e+00 3.436999999999999833e+00 1.697650000000000148e+01
