-6.950487461999999539e+01
-7.054927827000000207e+01
-6.933702587000000506e+01
-7.056000788999999429e+01
-7.056357393000000400e+01
-7.059066629000000148e+01
-7.011827465999999731e+01
-7.053097406999999919e+01
-7.026520100000000468e+01
-6.990591324999999756e+01
-7.017402103000000579e+01
-6.984983981000000597e+01
-7.009303153999999836e+01
-6.955207486999999844e+01
