8.335740000000000371e-01 -6.182079999999999798e-01 6.901500000000000412e-01 7.468679999999999763e-01 1.203176000000000023e+00 -1.046710999999999947e+00 -1.325350000000000028e+00 -1.207797999999999927e+00 -3.486520000000000175e-01 -4.737729999999999997e-01 -1.312766000000000099e+00 1.043979999999999908e+00 5.881979999999999986e-01 7.626619999999999511e-01 -9.043970000000000065e-01 6.472069999999999768e-01 4.681939999999999991e-01 -1.594810000000000116e-01 5.802840000000000220e-01 -1.685829000000000022e+00 2.342800000000000091e-02 8.599459999999999882e-01 9.131359999999999477e-01 4.698189999999999866e-01 -1.546400000000000031e-02 1.263538999999999968e+00 -1.047503000000000073e+00 2.458559999999999912e-01 -4.019999999999999962e-02 -3.167329999999999868e-01 -1.460539999999999894e-01 -4.933839999999999892e-01 3.849279999999999924e-01 -9.520599999999999896e-02 8.704530000000000323e-01 2.489180000000000004e-01 -4.309830000000000050e-01 8.008400000000000241e-02 1.035299999999999936e-02 3.025039999999999951e-01 6.216220000000000079e-01 -7.127040000000000042e-01 9.132080000000000197e-01 6.136669999999999625e-01 4.198930000000000162e-01 -2.153760000000000119e-01 -3.297180000000000111e-01 3.926199999999999829e-02 -1.422671999999999937e+00 -4.096870000000000234e-01 4.236699999999999910e-01 -5.288969999999999505e-01 6.382599999999999385e-02 3.078130000000000033e-01 1.318249999999999977e-01 -3.421219999999999817e-01 2.138629999999999975e-01 -1.195694000000000035e+00 -4.206489999999999951e-01 2.601040000000000019e-01
4.051799999999999846e-02 -1.001159999999999967e-01 -4.930229999999999890e-01 -4.231100000000000139e-02 1.546250000000000124e-01 2.831600000000000228e-01 8.276100000000000123e-02 -1.080770000000000064e-01 -1.332979999999999998e-01 -2.165289999999999992e-01 -8.144000000000000197e-03 2.020609999999999906e-01 -1.766330000000000122e-01 8.185099999999999321e-02 -3.070919999999999761e-01 2.557150000000000256e-01 8.879800000000000193e-02 -3.074390000000000178e-01 -1.024609000000000103e+00 1.829780000000000018e-01 -2.358999999999999986e-01 6.424649999999999528e-01 2.905789999999999762e-01 -2.279239999999999877e-01 -9.993299999999999406e-02 4.310229999999999895e-01 -2.214999999999999955e-03 -1.199149999999999938e-01 -4.905519999999999881e-01 -5.216429999999999678e-01 -8.726399999999999435e-02 -9.785199999999999454e-02 1.547520000000000007e-01 3.755900000000000211e-02 -2.757080000000000086e-01 1.927609999999999879e-01 1.728399999999999936e-01 -5.562099999999999683e-02 1.658969999999999889e-01 -3.026440000000000241e-01 -5.937100000000000016e-02 3.665800000000000308e-02 6.013099999999999695e-02 1.114899999999999919e-02 -9.517399999999999471e-02 3.428550000000000209e-01 4.432440000000000269e-01 5.074260000000000437e-01 -2.414699999999999833e-02 -1.758579999999999866e-01 3.003199999999999967e-02 2.796629999999999949e-01 2.928000000000000047e-03 1.298509999999999942e-01 7.613969999999999905e-01 6.427000000000000421e-03 3.827340000000000186e-01 -5.819199999999999928e-01 -3.223019999999999774e-01 2.383780000000000066e-01
3.478939999999999810e-01 -4.861710000000000198e-01 -2.490831000000000017e+00 5.973829999999999973e-01 -7.479749999999999455e-01 -4.766730000000000134e-01 1.705780000000000074e-01 -1.540020000000000000e-01 -1.257695000000000007e+00 -8.310710000000000042e-01 -9.443519999999999692e-01 -1.449416999999999955e+00 9.865699999999999470e-02 -1.548150000000000082e-01 4.617689999999999850e-01 1.500420000000000087e-01 -3.317050000000000276e-01 4.534799999999999942e-01 1.131631000000000054e+00 1.186730000000000007e-01 -8.979730000000000212e-01 -6.445389999999999731e-01 4.463880000000000070e-01 4.623650000000000260e-01 -9.148340000000000360e-01 1.318456999999999990e+00 -1.054489000000000010e+00 -3.077799999999999980e-01 -7.880299999999999805e-02 9.139920000000000266e-01 1.157210000000000044e-01 1.186803999999999970e+00 -1.223599999999999965e-01 3.054430000000000200e-01 3.549000000000000071e-02 8.883659999999999890e-01 7.147719999999999629e-01 1.872369999999999868e-01 2.082427000000000028e+00 1.440659999999999996e-01 -3.952999999999999847e-01 -1.588438999999999934e+00 -3.210330000000000128e-01 -1.165650000000000019e-01 1.060920000000000085e+00 -2.892750000000000044e-01 8.043000000000000149e-02 2.366334999999999855e+00 6.270550000000000290e-01 -2.238429999999999864e-01 -2.764309999999999823e-01 2.294410000000000061e-01 4.561220000000000274e-01 5.775179999999999758e-01 -1.584076000000000040e+00 -4.187109999999999999e-01 1.711670000000000136e-01 2.599250000000000171e-01 2.226390000000000036e-01 1.759699999999999875e-01
-2.718030000000000168e-01 -3.407939999999999858e-01 -2.149709999999999954e-01 4.821690000000000142e-01 2.892799999999999885e-02 1.067130000000000023e-01 1.791040000000000132e-01 -4.552799999999999903e-02 -1.750600000000000073e-02 2.335969999999999991e-01 3.354570000000000052e-01 -3.891000000000000014e-01 8.756380000000000274e-01 7.228940000000000365e-01 3.501440000000000108e-01 4.130440000000000222e-01 8.378700000000000037e-02 3.119529999999999803e-01 -4.824840000000000240e-01 -8.176120000000000054e-01 4.427400000000000085e-02 -8.878390000000000448e-01 -2.776219999999999799e-01 -1.069370000000000043e-01 -2.138390000000000013e-01 -1.081550000000000011e-01 2.099900000000000030e-02 -3.251129999999999853e-01 -9.125400000000000178e-02 7.223200000000000454e-02 2.399000000000000091e-03 1.481659999999999922e-01 4.784619999999999984e-01 -5.600399999999999823e-01 9.050800000000000511e-02 1.407909999999999995e-01 -3.645200000000000107e-01 -4.290490000000000137e-01 -9.496750000000000469e-01 1.779999999999999985e-02 -6.881700000000000317e-02 1.286539999999999906e-01 -2.626500000000000015e-02 1.737670000000000048e-01 2.465099999999999930e-02 2.875519999999999743e-01 -1.246040000000000064e-01 -5.786850000000000049e-01 -1.087810000000000027e-01 -1.188990000000000047e-01 1.708850000000000091e-01 8.044600000000000362e-02 4.839359999999999773e-01 3.194949999999999735e-01 3.112599999999999811e-01 3.297749999999999848e-01 2.944599999999999995e-01 3.576739999999999919e-01 2.511700000000000044e-02 -2.068379999999999941e-01
1.125020000000000048e-01 4.832640000000000269e-01 -7.398399999999999421e-02 2.044660000000000089e-01 -3.112949999999999884e-01 3.255919999999999925e-01 4.759769999999999834e-01 2.683559999999999834e-01 5.215600000000000097e-02 2.022339999999999971e-01 -1.769449999999999912e-01 -5.799429999999999863e-01 5.454900000000000027e-02 2.504810000000000092e-01 -5.089599999999999680e-02 -4.172000000000000014e-02 -4.071159999999999779e-01 -1.234149999999999969e-01 -3.617659999999999765e-01 2.340260000000000118e-01 2.085049999999999959e-01 1.404030000000000000e-01 -6.369730000000000114e-01 -1.918580000000000008e-01 -3.338599999999999901e-02 -5.361089999999999467e-01 1.768490000000000062e-01 -4.417150000000000243e-01 -2.181389999999999996e-01 -7.221889999999999699e-01 -1.947780000000000067e-01 5.711789999999999923e-01 4.807199999999999668e-02 -1.139100000000000008e-02 1.909279999999999866e-01 2.469030000000000113e-01 3.809589999999999921e-01 -2.914700000000000069e-01 -1.221208999999999989e+00 -2.811799999999999855e-01 2.878850000000000020e-01 4.211980000000000168e-01 1.492410000000000125e-01 1.070880000000000026e-01 -3.935569999999999902e-01 -3.591880000000000073e-01 1.926900000000000140e-02 -1.213719999999999938e-01 7.714300000000000324e-02 3.131619999999999959e-01 1.097922000000000065e+00 -3.008520000000000083e-01 3.583979999999999944e-01 1.573110000000000064e-01 -1.041000000000000085e-02 -1.770710000000000062e-01 4.018459999999999810e-01 2.389129999999999865e-01 -3.289170000000000149e-01 3.420699999999999852e-01
1.631859999999999977e-01 -2.576039999999999996e-01 6.086199999999999943e-02 2.303040000000000087e-01 -2.573849999999999749e-01 6.373210000000000264e-01 -1.738679999999999948e-01 3.148100000000000204e-02 -3.284340000000000037e-01 3.965750000000000108e-01 2.400220000000000131e-01 -3.336259999999999781e-01 3.750550000000000272e-01 -9.271730000000000249e-01 4.259519999999999973e-01 7.487650000000000139e-01 6.136199999999999988e-02 -7.666599999999999804e-02 -5.004650000000000487e-01 5.677299999999999708e-02 -6.179199999999999970e-02 -7.878199999999999648e-01 -6.930039999999999534e-01 3.589890000000000025e-01 -1.034859999999999947e-01 2.150870000000000004e-01 5.218819999999999570e-01 -7.036699999999999899e-02 -2.990229999999999833e-01 1.317750000000000032e-01 -3.839009999999999923e-01 5.430340000000000167e-01 2.315270000000000106e-01 1.627969999999999973e-01 -5.576500000000000207e-02 2.758829999999999893e-01 -1.723210000000000020e-01 3.731470000000000065e-01 -1.281093999999999955e+00 -3.787420000000000231e-01 1.102270000000000055e-01 -7.384490000000000220e-01 -5.681519999999999904e-01 2.158130000000000048e-01 -3.285420000000000007e-01 1.862499999999999920e-02 -4.906400000000000206e-01 4.247999999999999693e-02 2.293969999999999898e-01 2.097189999999999888e-01 5.584959999999999924e-01 4.773930000000000118e-01 -1.804749999999999965e-01 -3.420200000000000323e-02 -6.622599999999999321e-02 -4.839199999999999752e-02 3.566699999999999732e-02 4.032519999999999993e-01 1.152794000000000096e+00 -9.803099999999999314e-02
-1.670959999999999945e-01 -5.252310000000000034e-01 -6.559490000000000043e-01 3.420380000000000087e-01 9.421990000000000087e-01 2.918629999999999836e-01 -3.470899999999999680e-02 -6.139409999999999590e-01 3.971299999999999830e-01 6.764900000000000080e-02 1.000010999999999983e+00 2.307599999999999929e-01 6.753029999999999866e-01 -4.415899999999999687e-02 -5.059989999999999766e-01 6.715700000000000003e-01 -5.022999999999999687e-01 5.226560000000000095e-01 -1.195350000000000024e-01 4.215409999999999990e-01 -2.558380000000000098e-01 3.751499999999999835e-01 -6.257169999999999677e-01 2.418009999999999882e-01 7.337299999999999933e-01 -5.736790000000000500e-01 3.247129999999999739e-01 -7.172539999999999472e-01 6.267350000000000421e-01 -9.496830000000000549e-01 -4.637839999999999741e-01 -8.269999999999999574e-03 7.969610000000000305e-01 4.421410000000000062e-01 -4.960390000000000077e-01 1.373830000000000051e-01 1.800799999999999901e-01 6.538279999999999648e-01 -5.974289999999999878e-01 -1.146940000000000043e-01 3.451089999999999991e-01 -5.089939999999999465e-01 -2.960610000000000186e-01 2.542409999999999948e-01 -2.610319999999999863e-01 -4.432200000000000029e-01 -3.292379999999999751e-01 -6.084640000000000049e-01 5.454200000000000020e-02 4.343509999999999871e-01 1.071752999999999956e+00 5.420359999999999623e-01 -2.648490000000000011e-01 8.654699999999999893e-02 -8.298140000000000516e-01 -3.383979999999999766e-01 7.200700000000000156e-02 -8.980719999999999814e-01 -3.561940000000000106e-01 1.698129999999999917e-01
2.335770000000000068e-01 -3.177329999999999877e-01 -2.885179999999999967e-01 -4.930680000000000063e-01 7.456899999999999640e-02 -3.096380000000000243e-01 1.138220000000000065e-01 -3.197070000000000189e-01 -3.036119999999999930e-01 9.566700000000000204e-02 2.968509999999999760e-01 -1.367960000000000009e-01 7.768799999999999317e-02 -3.650720000000000076e-01 1.819880000000000109e-01 3.778420000000000112e-01 2.598260000000000014e-01 5.710560000000000080e-01 -3.926549999999999763e-01 6.988600000000000367e-02 1.882790000000000019e-01 1.213364000000000109e+00 -9.651999999999999469e-02 1.964619999999999977e-01 -1.820620000000000016e-01 -4.043499999999999872e-02 1.593970000000000109e-01 6.110449999999999493e-01 3.529510000000000147e-01 3.406489999999999796e-01 -1.307699999999999974e-01 -3.218239999999999990e-01 5.271689999999999987e-01 1.851770000000000083e-01 4.104650000000000243e-01 9.884600000000000330e-02 3.495260000000000034e-01 1.456359999999999877e-01 -1.318945999999999952e+00 -6.714269999999999960e-01 4.257790000000000186e-01 6.548400000000000054e-02 5.089879999999999960e-01 -4.809599999999999986e-01 9.979999999999999722e-04 -7.005689999999999973e-01 -2.686459999999999959e-01 -1.446199999999999916e-02 5.401799999999999657e-02 -7.009100000000000052e-02 3.528140000000000165e-01 -1.816599999999999882e-01 5.678659999999999819e-01 7.530599999999999794e-02 -1.636980000000000102e-01 -1.081379999999999980e-01 -4.246489999999999987e-01 -9.048049999999999704e-01 -2.147040000000000060e-01 3.817099999999999660e-02
-2.149890000000000134e-01 -4.089439999999999742e-01 -4.199240000000000195e-01 -4.101609999999999978e-01 -3.453330000000000011e-01 -1.403810000000000058e-01 2.315439999999999998e-01 6.914839999999999876e-01 -3.863389999999999880e-01 1.242800000000000016e-01 -3.022009999999999974e-01 -1.238810000000000050e-01 3.385099999999999776e-01 -3.440599999999999908e-02 1.417239999999999889e-01 1.611400000000000055e-01 -4.196860000000000035e-01 -3.893599999999999839e-01 -5.243130000000000290e-01 8.686399999999999677e-01 1.691050000000000053e-01 8.001219999999999999e-01 -2.031769999999999965e-01 -5.612799999999999734e-02 3.729609999999999870e-01 8.379539999999999766e-01 5.353569999999999718e-01 4.435430000000000206e-01 -4.299350000000000116e-01 9.113699999999999579e-02 -7.583539999999999726e-01 2.501689999999999747e-01 2.344960000000000100e-01 -4.941050000000000164e-01 -2.952179999999999804e-01 -2.144149999999999945e-01 4.264910000000000090e-01 -2.186150000000000038e-01 -1.089088999999999974e+00 4.350099999999999800e-02 1.699219999999999897e-01 2.157810000000000006e-01 3.097449999999999926e-01 1.545799999999999952e-02 -3.986129999999999951e-01 2.916239999999999943e-01 2.917109999999999981e-01 6.649559999999999915e-01 2.981699999999999975e-02 -3.505300000000000082e-02 1.024850000000000066e-01 -6.569200000000000039e-02 -4.186349999999999794e-01 1.859909999999999897e-01 -5.740119999999999667e-01 4.312039999999999762e-01 6.366260000000000252e-01 -5.316509999999999847e-01 -4.453380000000000116e-01 2.404719999999999913e-01
5.449439999999999840e-01 2.858299999999999730e-01 2.156879999999999908e-01 3.126390000000000002e-01 -3.743099999999999761e-01 9.224200000000000454e-02 5.298580000000000512e-01 7.662799999999999612e-01 1.342200000000000060e-01 6.067949999999999733e-01 -5.310099999999999820e-01 3.964100000000000262e-02 6.260280000000000289e-01 -6.260590000000000321e-01 2.512199999999999850e-02 7.561149999999999816e-01 2.180140000000000133e-01 1.036590000000000011e-01 3.555389999999999939e-01 1.405961999999999934e+00 1.266970000000000041e-01 8.744290000000000118e-01 -6.232499999999999846e-02 -1.972089999999999954e-01 -7.761289999999999578e-01 5.225099999999999884e-02 2.982500000000000082e-02 -3.554249999999999909e-01 -4.119360000000000244e-01 -7.596580000000000554e-01 -2.103210000000000079e-01 -1.869600000000000081e-02 4.916559999999999819e-01 1.019380000000000008e-01 8.316900000000000681e-02 -2.140200000000000088e-02 -2.539830000000000143e-01 -3.160400000000000015e-02 -8.256280000000000285e-01 -5.642340000000000133e-01 -4.840209999999999790e-01 -4.531950000000000145e-01 -5.649239999999999817e-01 5.355399999999999744e-02 1.464030000000000054e-01 -5.391190000000000149e-01 3.031389999999999918e-01 -2.586120000000000085e-01 -3.210720000000000240e-01 -2.080490000000000117e-01 7.613900000000000112e-01 7.773199999999999554e-02 -3.743920000000000026e-01 1.411870000000000069e-01 -6.763599999999999612e-01 -4.385510000000000241e-01 1.784600000000000075e-02 -5.244499999999999718e-01 3.927539999999999920e-01 1.901269999999999905e-01
3.112900000000000042e-02 -5.115039999999999587e-01 5.528299999999999881e-02 -1.012664000000000009e+00 4.761759999999999882e-01 -6.097989999999999799e-01 6.657880000000000464e-01 -2.765460000000000140e-01 -5.971060000000000256e-01 1.889949999999999963e-01 -9.773600000000000343e-02 -1.416290000000000049e-01 3.788810000000000233e-01 -5.620950000000000113e-01 -3.595769999999999800e-01 1.202249999999999985e-01 5.642409999999999926e-01 2.609690000000000065e-01 -4.118829999999999991e-01 6.172760000000000469e-01 1.135779999999999984e-01 2.723619999999999930e-01 -8.530200000000000282e-02 5.507999999999999875e-03 -4.249959999999999849e-01 5.341580000000000217e-01 2.412239999999999940e-01 3.888559999999999794e-01 5.312219999999999720e-01 1.096700000000000036e-01 1.925520000000000009e-01 1.554099999999999926e-02 4.312980000000000147e-01 1.572429999999999939e-01 -2.538340000000000041e-01 2.724119999999999875e-01 2.441439999999999999e-01 3.864399999999999780e-02 -7.707800000000000207e-01 -5.942009999999999792e-01 -1.921940000000000037e-01 7.644360000000000044e-01 6.005390000000000450e-01 -2.752930000000000099e-01 -5.628800000000000470e-01 -4.022530000000000272e-01 -1.630620000000000125e-01 3.769499999999999934e-02 7.772999999999999354e-02 -1.396600000000000064e-01 3.283570000000000100e-01 2.513489999999999891e-01 -3.091800000000000104e-01 6.085600000000000037e-02 -2.345379999999999965e-01 -5.143469999999999986e-01 3.052469999999999906e-01 -4.892569999999999975e-01 6.034960000000000324e-01 5.523800000000000238e-02
6.022960000000000536e-01 -5.147140000000000049e-01 2.519370000000000220e-01 6.022560000000000136e-01 9.454150000000000054e-01 7.193070000000000297e-01 6.034990000000000077e-01 -6.568089999999999762e-01 -7.982699999999999518e-02 -3.626380000000000159e-01 4.895880000000000232e-01 2.848720000000000141e-01 -1.360000000000000098e-03 -2.680219999999999825e-01 5.412200000000000344e-01 7.963500000000000023e-01 9.581749999999999989e-01 1.469116000000000088e+00 -1.465510000000000090e+00 4.737279999999999824e-01 8.787960000000000216e-01 -2.053449999999999998e-01 3.666539999999999799e-01 6.227920000000000122e-01 -6.539880000000000138e-01 -1.902270000000000072e-01 2.523119999999999807e-01 -8.213740000000000485e-01 -4.875929999999999986e-01 -4.944859999999999811e-01 -3.088499999999999926e-02 1.671580000000000010e-01 1.322369999999999934e-01 2.171069999999999944e-01 5.836980000000000501e-01 6.150200000000000111e-02 3.115660000000000096e-01 -2.363689999999999958e-01 -1.052618999999999971e+00 -2.768970000000000042e-01 -1.633906999999999998e+00 -2.106351999999999780e+00 -3.374989999999999934e-01 -4.805579999999999852e-01 -1.299317999999999973e+00 1.346499999999999919e-01 6.149120000000000141e-01 -2.835110000000000130e-01 6.809830000000000050e-01 1.023489999999999955e-01 3.363829999999999876e-01 7.311700000000000144e-02 3.166570000000000218e-01 3.023950000000000249e-01 3.774710000000000010e-01 7.596400000000000374e-02 -6.974059999999999704e-01 -2.438009999999999899e-01 -6.260999999999999899e-01 1.606529999999999903e-01
4.287130000000000107e-01 2.671259999999999746e-01 -2.215360000000000107e-01 1.247722999999999915e+00 7.215279999999999472e-01 -2.106040000000000134e-01 -4.080699999999999883e-01 -1.774900000000000089e-02 -1.728600000000000136e-01 -4.443270000000000275e-01 -6.970349999999999602e-01 3.275890000000000191e-01 4.505100000000000215e-01 3.326000000000000068e-01 -3.674040000000000084e-01 -2.165459999999999885e-01 -2.934860000000000246e-01 -3.134040000000000159e-01 6.079790000000000472e-01 2.174580000000000124e-01 -8.209299999999999931e-02 8.009760000000000213e-01 -1.867299999999999863e-02 6.864199999999999469e-02 -2.349130000000000107e-01 1.076659999999999978e-01 6.327939999999999676e-01 -2.921079999999999788e-01 -3.015860000000000207e-01 -8.412669999999999870e-01 -9.790899999999999603e-02 -4.562499999999999889e-01 9.234499999999999653e-02 -1.041559999999999986e-01 4.825010000000000132e-01 2.814710000000000267e-01 6.127900000000000014e-02 2.676769999999999983e-01 -5.531509999999999483e-01 -4.218350000000000155e-01 -2.606990000000000141e-01 -1.901110000000000022e-01 -8.087800000000000544e-01 -5.539100000000000273e-02 -3.838460000000000205e-01 1.440131000000000050e+00 4.786619999999999764e-01 6.327340000000000186e-01 -3.715829999999999966e-01 -2.969300000000000064e-02 6.246639999999999970e-01 -5.252820000000000267e-01 9.483199999999999963e-02 6.659099999999999742e-02 -8.103409999999999780e-01 -4.353079999999999727e-01 1.482169999999999876e-01 -3.014629999999999810e-01 -4.041799999999999837e-01 4.612290000000000001e-01
4.169070000000000276e-01 -3.445349999999999802e-01 6.120360000000000245e-01 -3.431370000000000253e-01 -7.949469999999999592e-01 -1.595940000000000136e-01 -3.690689999999999804e-01 -2.042559999999999931e-01 2.445259999999999934e-01 2.784710000000000241e-01 5.587700000000000305e-02 8.762200000000000544e-02 1.263757999999999937e+00 9.095000000000000653e-03 -3.560360000000000191e-01 7.093319999999999625e-01 7.206160000000000343e-01 1.858150000000000079e-01 7.317919999999999980e-01 -1.501699999999999979e-01 8.101099999999999968e-02 -2.061240000000000017e-01 -3.323409999999999975e-01 8.750729999999999897e-01 -3.160709999999999908e-01 -3.755209999999999937e-01 6.312299999999999855e-02 4.037200000000000233e-01 1.148881999999999959e+00 -3.213079999999999825e-01 4.857100000000000306e-02 1.984680000000000055e-01 1.679430000000000089e-01 -6.066939999999999555e-01 -3.410999999999999970e-03 -3.391600000000000170e-02 2.015720000000000012e-01 -4.361899999999999805e-02 -4.706219999999999848e-01 2.229029999999999900e-01 6.025460000000000260e-01 4.962440000000000184e-01 -6.041959999999999553e-01 -1.397519999999999873e-01 -1.290972000000000008e+00 -3.104700000000000168e-02 1.581319999999999948e-01 -9.859400000000000108e-02 -6.832420000000000160e-01 1.543090000000000017e-01 -5.863059999999999938e-01 -1.853499999999999870e-01 -4.767770000000000064e-01 -4.573479999999999768e-01 -8.457630000000000425e-01 -4.173620000000000108e-01 7.810660000000000380e-01 -8.633399999999999408e-02 2.347660000000000025e-01 1.802400000000000113e-01
