4.160556888000000342e+00 0.000000000000000000e+00 0.000000000000000000e+00 -5.325581000000000238e-03 7.294188856999999970e+00 0.000000000000000000e+00 1.096839119999999945e-01 1.017565410000000059e-01 3.022933939800000047e+01
4.456926786999999557e+00 0.000000000000000000e+00 0.000000000000000000e+00 -5.015803099999999876e-02 7.801401612000000263e+00 0.000000000000000000e+00 -5.794594280000000541e-01 4.908987400000000001e-01 3.127077424000000150e+01
4.332267086999999961e+00 0.000000000000000000e+00 0.000000000000000000e+00 -4.875511700000000059e-02 7.583197356000000333e+00 0.000000000000000000e+00 -5.632520180000000209e-01 4.771683620000000126e-01 3.039613448300000087e+01
4.284693007000000442e+00 0.000000000000000000e+00 0.000000000000000000e+00 -4.821972000000000064e-02 7.499923719999999960e+00 0.000000000000000000e+00 -5.570667590000000224e-01 4.719284160000000172e-01 3.006234432700000170e+01
4.257322417000000137e+00 0.000000000000000000e+00 0.000000000000000000e+00 -4.791169299999999825e-02 7.452014257000000086e+00 0.000000000000000000e+00 -5.535082199999999952e-01 4.689137400000000233e-01 2.987030626900000030e+01
4.143826179999999582e+00 0.000000000000000000e+00 0.000000000000000000e+00 -5.304164999999999575e-03 7.264856981000000324e+00 0.000000000000000000e+00 1.092428440000000056e-01 1.013473500000000027e-01 3.010777917300000084e+01
4.163422678999999960e+00 0.000000000000000000e+00 0.000000000000000000e+00 -8.406099999999999358e-05 7.211210988999999572e+00 0.000000000000000000e+00 -1.403839999999999895e-04 1.725610000000000034e-04 2.937796567399999859e+01
4.345973822000000375e+00 0.000000000000000000e+00 0.000000000000000000e+00 1.563235420000000098e-01 7.278409646000000066e+00 0.000000000000000000e+00 8.188954550000000498e-01 1.110970599999999975e-01 3.110237678700000075e+01
4.163545870000000093e+00 0.000000000000000000e+00 0.000000000000000000e+00 -5.329407000000000415e-03 7.299429068000000242e+00 0.000000000000000000e+00 1.097627099999999994e-01 1.018296429999999975e-01 3.025105642999999844e+01
4.096573548000000287e+00 0.000000000000000000e+00 0.000000000000000000e+00 5.625498100000000251e-02 7.321803650999999746e+00 0.000000000000000000e+00 -3.692013140000000027e-01 1.612575029999999965e-01 2.909826500400000171e+01
4.179817951000000420e+00 0.000000000000000000e+00 0.000000000000000000e+00 -5.350235000000000060e-03 7.327956892999999639e+00 0.000000000000000000e+00 1.101916879999999960e-01 1.022276170000000067e-01 3.036928441899999953e+01
4.174910517999999904e+00 0.000000000000000000e+00 0.000000000000000000e+00 -8.429300000000000085e-05 7.231108374999999810e+00 0.000000000000000000e+00 -1.407710000000000114e-04 1.730369999999999901e-04 2.945902622299999862e+01
4.452871123000000431e+00 0.000000000000000000e+00 0.000000000000000000e+00 6.114773200000000325e-02 7.958614110000000075e+00 0.000000000000000000e+00 -4.013124259999999999e-01 1.752827989999999891e-01 3.162907303900000144e+01
4.260609631000000341e+00 0.000000000000000000e+00 0.000000000000000000e+00 -5.453649999999999991e-03 7.469598934000000412e+00 0.000000000000000000e+00 1.123215830000000026e-01 1.042035739999999933e-01 3.095629216400000061e+01
4.359014529999999610e+00 0.000000000000000000e+00 0.000000000000000000e+00 1.567926129999999973e-01 7.300249542000000424e+00 0.000000000000000000e+00 8.213526669999999807e-01 1.114304230000000007e-01 3.119570385999999829e+01
4.172761157000000054e+00 0.000000000000000000e+00 0.000000000000000000e+00 5.730120500000000089e-02 7.457973723000000277e+00 0.000000000000000000e+00 -3.760676780000000163e-01 1.642565520000000001e-01 2.963943122999999957e+01
4.386841053999999573e+00 0.000000000000000000e+00 0.000000000000000000e+00 -9.451663999999999899e-02 7.272103100999999903e+00 0.000000000000000000e+00 7.021311770000000507e-01 -6.497579380000000349e-01 3.110994601599999854e+01
4.159776144000000286e+00 0.000000000000000000e+00 0.000000000000000000e+00 -5.324581999999999579e-03 7.292820075999999929e+00 0.000000000000000000e+00 1.096633300000000033e-01 1.017374459999999953e-01 3.022366675399999991e+01
4.184473008000000327e+00 0.000000000000000000e+00 0.000000000000000000e+00 -8.448600000000000391e-05 7.247670982999999900e+00 0.000000000000000000e+00 -1.410940000000000013e-04 1.734329999999999910e-04 2.952650112099999902e+01
4.297131777999999791e+00 0.000000000000000000e+00 0.000000000000000000e+00 -4.835970600000000230e-02 7.521696537000000404e+00 0.000000000000000000e+00 -5.586839639999999774e-01 4.732984579999999775e-01 3.014961746799999887e+01
4.401248212999999687e+00 0.000000000000000000e+00 0.000000000000000000e+00 -9.482704999999999607e-02 7.295985969000000182e+00 0.000000000000000000e+00 7.044371000000000382e-01 -6.518918569999999635e-01 3.121211655899999826e+01
4.353498128000000023e+00 0.000000000000000000e+00 0.000000000000000000e+00 -4.899404999999999732e-02 7.620360156000000273e+00 0.000000000000000000e+00 -5.660123339999999503e-01 4.795068100000000055e-01 3.054509611800000002e+01
4.159127083999999641e+00 0.000000000000000000e+00 0.000000000000000000e+00 -4.680660799999999955e-02 7.280133214000000130e+00 0.000000000000000000e+00 -5.407415279999999713e-01 4.580982239999999983e-01 2.918134631599999906e+01
4.444108349999999596e+00 0.000000000000000000e+00 0.000000000000000000e+00 -5.001377299999999748e-02 7.778964227000000342e+00 0.000000000000000000e+00 -5.777928620000000182e-01 4.894868800000000131e-01 3.118083727499999824e+01
4.211939486000000343e+00 0.000000000000000000e+00 0.000000000000000000e+00 1.515023620000000015e-01 7.053935949999999622e+00 0.000000000000000000e+00 7.936398709999999967e-01 1.076707120000000018e-01 3.014314725799999906e+01
4.313252476999999807e+00 0.000000000000000000e+00 0.000000000000000000e+00 -9.293113799999999647e-02 7.150114701999999767e+00 0.000000000000000000e+00 6.903530359999999755e-01 -6.388583490000000475e-01 3.058808150600000175e+01
4.382869048999999961e+00 0.000000000000000000e+00 0.000000000000000000e+00 -9.443106199999999617e-02 7.265518673999999955e+00 0.000000000000000000e+00 7.014954420000000246e-01 -6.491696230000000289e-01 3.108177793899999841e+01
4.349811931999999715e+00 0.000000000000000000e+00 0.000000000000000000e+00 1.564615980000000073e-01 7.284837511000000099e+00 0.000000000000000000e+00 8.196186559999999455e-01 1.111951749999999933e-01 3.112984458500000073e+01
4.208305457999999888e+00 0.000000000000000000e+00 0.000000000000000000e+00 -5.386700000000000342e-03 7.377900507999999746e+00 0.000000000000000000e+00 1.109426980000000063e-01 1.029243479999999988e-01 3.057626596700000121e+01
4.185813503000000324e+00 0.000000000000000000e+00 0.000000000000000000e+00 -8.451299999999999535e-05 7.249992770999999614e+00 0.000000000000000000e+00 -1.411390000000000051e-04 1.734890000000000054e-04 2.953595992400000014e+01
4.461975555999999621e+00 0.000000000000000000e+00 0.000000000000000000e+00 6.127275599999999767e-02 7.974886459000000372e+00 0.000000000000000000e+00 -4.021329579999999848e-01 1.756411860000000047e-01 3.169374250299999929e+01
4.130922936000000156e+00 0.000000000000000000e+00 0.000000000000000000e+00 5.672667399999999777e-02 7.383196293000000132e+00 0.000000000000000000e+00 -3.722970329999999994e-01 1.626096320000000039e-01 2.934225125000000034e+01
4.296890173000000424e+00 0.000000000000000000e+00 0.000000000000000000e+00 1.545580159999999925e-01 7.196206916999999592e+00 0.000000000000000000e+00 8.096468079999999956e-01 1.098423240000000051e-01 3.075110496099999935e+01
4.194351764000000315e+00 0.000000000000000000e+00 0.000000000000000000e+00 -8.468500000000000658e-05 7.264781374000000014e+00 0.000000000000000000e+00 -1.414270000000000132e-04 1.738429999999999956e-04 2.959620765000000020e+01
4.087739787000000291e+00 0.000000000000000000e+00 0.000000000000000000e+00 -5.232373999999999706e-03 7.166527656000000412e+00 0.000000000000000000e+00 1.077642500000000059e-01 9.997562100000000063e-02 2.970027251599999829e+01
4.355773667000000238e+00 0.000000000000000000e+00 0.000000000000000000e+00 -8.794399999999999689e-05 7.544370426000000407e+00 0.000000000000000000e+00 -1.468700000000000084e-04 1.805330000000000010e-04 3.073523375499999943e+01
4.184306797999999716e+00 0.000000000000000000e+00 0.000000000000000000e+00 5.745975200000000283e-02 7.478609238999999853e+00 0.000000000000000000e+00 -3.771082219999999929e-01 1.647110340000000062e-01 2.972144076700000070e+01
4.328066572000000001e+00 0.000000000000000000e+00 0.000000000000000000e+00 -4.870784400000000014e-02 7.575844778999999640e+00 0.000000000000000000e+00 -5.627058959999999832e-01 4.767057049999999796e-01 3.036666275600000020e+01
4.349363938999999846e+00 0.000000000000000000e+00 0.000000000000000000e+00 -4.894752399999999920e-02 7.613123673999999674e+00 0.000000000000000000e+00 -5.654748349999999535e-01 4.790514579999999856e-01 3.051608974099999827e+01
4.417894820999999972e+00 0.000000000000000000e+00 0.000000000000000000e+00 -4.971876699999999705e-02 7.733080084000000021e+00 0.000000000000000000e+00 -5.743847560000000518e-01 4.865996470000000240e-01 3.099691741799999889e+01
4.256697735000000371e+00 0.000000000000000000e+00 0.000000000000000000e+00 1.531123050000000041e-01 7.128894724000000238e+00 0.000000000000000000e+00 8.020734990000000231e-01 1.088148760000000048e-01 3.046346393900000038e+01
4.166514004999999798e+00 0.000000000000000000e+00 0.000000000000000000e+00 -5.333206000000000058e-03 7.304632731999999962e+00 0.000000000000000000e+00 1.098409590000000019e-01 1.019022359999999933e-01 3.027262199500000150e+01
4.153502388999999795e+00 0.000000000000000000e+00 0.000000000000000000e+00 5.703674000000000244e-02 7.423552536999999951e+00 0.000000000000000000e+00 -3.743319929999999740e-01 1.634984489999999901e-01 2.950263477200000040e+01
4.396334093000000109e+00 0.000000000000000000e+00 0.000000000000000000e+00 -9.472117300000000573e-02 7.287839790999999678e+00 0.000000000000000000e+00 7.036505760000000276e-01 -6.511640010000000478e-01 3.117726733499999980e+01
4.195450998000000098e+00 0.000000000000000000e+00 0.000000000000000000e+00 -4.721539500000000028e-02 7.343714567000000137e+00 0.000000000000000000e+00 -5.454641169999999706e-01 4.620990440000000143e-01 2.943620284600000048e+01
4.354894784999999935e+00 0.000000000000000000e+00 0.000000000000000000e+00 1.566444270000000027e-01 7.293350006999999913e+00 0.000000000000000000e+00 8.205763990000000119e-01 1.113251090000000054e-01 3.116622050699999846e+01
4.130185233999999816e+00 0.000000000000000000e+00 0.000000000000000000e+00 -5.286705000000000050e-03 7.240942000000000434e+00 0.000000000000000000e+00 1.088832309999999970e-01 1.010137279999999971e-01 3.000866820999999973e+01
4.435799712999999755e+00 0.000000000000000000e+00 0.000000000000000000e+00 6.091330400000000145e-02 7.928102389000000194e+00 0.000000000000000000e+00 -3.997738750000000008e-01 1.746108000000000104e-01 3.150781355299999831e+01
4.256837635000000120e+00 0.000000000000000000e+00 0.000000000000000000e+00 1.531173369999999923e-01 7.129129020999999788e+00 0.000000000000000000e+00 8.020998599999999978e-01 1.088184529999999955e-01 3.046446514699999852e+01
4.337171810000000072e+00 0.000000000000000000e+00 0.000000000000000000e+00 5.955892599999999815e-02 7.751824790999999770e+00 0.000000000000000000e+00 -3.908850930000000168e-01 1.707284119999999961e-01 3.080725225699999825e+01
4.134986511000000142e+00 0.000000000000000000e+00 0.000000000000000000e+00 5.678247599999999840e-02 7.390459117999999883e+00 0.000000000000000000e+00 -3.726632599999999962e-01 1.627695909999999913e-01 2.937111512099999899e+01
4.138005875000000167e+00 0.000000000000000000e+00 0.000000000000000000e+00 5.682393899999999692e-02 7.395855625000000266e+00 0.000000000000000000e+00 -3.729353779999999841e-01 1.628884449999999928e-01 2.939256188499999922e+01
4.485316810999999682e+00 0.000000000000000000e+00 0.000000000000000000e+00 -5.047753099999999910e-02 7.851095489000000427e+00 0.000000000000000000e+00 -5.831505070000000401e-01 4.940256989999999848e-01 3.146996486000000104e+01
4.358922119999999900e+00 0.000000000000000000e+00 0.000000000000000000e+00 -4.905509100000000205e-02 7.629854308999999724e+00 0.000000000000000000e+00 -5.667175250000000553e-01 4.801042240000000239e-01 3.058315203500000123e+01
4.427414709999999864e+00 0.000000000000000000e+00 0.000000000000000000e+00 -9.539082000000000117e-02 7.339362389999999792e+00 0.000000000000000000e+00 7.086251510000000087e-01 -6.557675139999999958e-01 3.139768022699999861e+01
4.189322952000000377e+00 0.000000000000000000e+00 0.000000000000000000e+00 -5.362401999999999620e-03 7.344620832999999571e+00 0.000000000000000000e+00 1.104422659999999973e-01 1.024600850000000063e-01 3.043834486300000108e+01
4.319193813000000048e+00 0.000000000000000000e+00 0.000000000000000000e+00 -5.528639000000000123e-03 7.572307321000000258e+00 0.000000000000000000e+00 1.138660249999999957e-01 1.056363919999999956e-01 3.138194698799999927e+01
4.137439694000000223e+00 0.000000000000000000e+00 0.000000000000000000e+00 5.681616400000000233e-02 7.394843690000000080e+00 0.000000000000000000e+00 -3.728843519999999745e-01 1.628661580000000109e-01 2.938854025999999919e+01
4.161758464000000046e+00 0.000000000000000000e+00 0.000000000000000000e+00 -8.402700000000000034e-05 7.208328501999999638e+00 0.000000000000000000e+00 -1.403280000000000022e-04 1.724920000000000012e-04 2.936622262699999908e+01
4.345761972000000029e+00 0.000000000000000000e+00 0.000000000000000000e+00 -4.890698799999999846e-02 7.606818793999999606e+00 0.000000000000000000e+00 -5.650065319999999502e-01 4.786547270000000021e-01 3.049081755199999932e+01
4.367275660999999864e+00 0.000000000000000000e+00 0.000000000000000000e+00 -8.817700000000000635e-05 7.564292329999999787e+00 0.000000000000000000e+00 -1.472570000000000031e-04 1.810100000000000034e-04 3.081639418900000038e+01
4.228296446999999958e+00 0.000000000000000000e+00 0.000000000000000000e+00 -4.758503599999999722e-02 7.401207218999999782e+00 0.000000000000000000e+00 -5.497344600000000359e-01 4.657167360000000200e-01 2.966665370699999826e+01
4.178724242000000366e+00 0.000000000000000000e+00 0.000000000000000000e+00 -8.436999999999999350e-05 7.237713894999999731e+00 0.000000000000000000e+00 -1.409000000000000096e-04 1.731950000000000113e-04 2.948593664599999897e+01
4.498216868000000090e+00 0.000000000000000000e+00 0.000000000000000000e+00 -5.062270700000000290e-02 7.873675740000000367e+00 0.000000000000000000e+00 -5.848276850000000415e-01 4.954465479999999866e-01 3.156047448600000038e+01
4.339691553999999840e+00 0.000000000000000000e+00 0.000000000000000000e+00 -4.883867100000000017e-02 7.596193139000000372e+00 0.000000000000000000e+00 -5.642172970000000065e-01 4.779861140000000175e-01 3.044822617199999826e+01
4.361166599999999782e+00 0.000000000000000000e+00 0.000000000000000000e+00 1.568700219999999979e-01 7.303853715999999885e+00 0.000000000000000000e+00 8.217581729999999807e-01 1.114854359999999933e-01 3.121110535600000091e+01
4.210928914000000134e+00 0.000000000000000000e+00 0.000000000000000000e+00 -5.390057999999999655e-03 7.382499888999999982e+00 0.000000000000000000e+00 1.110118600000000039e-01 1.029885110000000048e-01 3.059532720099999992e+01
4.300921313999999995e+00 0.000000000000000000e+00 0.000000000000000000e+00 -4.840235300000000213e-02 7.528329738000000049e+00 0.000000000000000000e+00 -5.591766529999999680e-01 4.737158479999999949e-01 3.017620568199999909e+01
4.293451701000000398e+00 0.000000000000000000e+00 0.000000000000000000e+00 -4.831828999999999985e-02 7.515254932000000387e+00 0.000000000000000000e+00 -5.582055049999999907e-01 4.728931230000000263e-01 3.012379723900000172e+01
4.161125166999999792e+00 0.000000000000000000e+00 0.000000000000000000e+00 5.714141699999999990e-02 7.437176724000000405e+00 0.000000000000000000e+00 -3.750189910000000237e-01 1.637985120000000072e-01 2.955677992900000106e+01
4.192920735999999593e+00 0.000000000000000000e+00 0.000000000000000000e+00 -5.367007000000000028e-03 7.350928382000000205e+00 0.000000000000000000e+00 1.105371140000000058e-01 1.025480770000000014e-01 3.046448526700000059e+01
4.283505796000000032e+00 0.000000000000000000e+00 0.000000000000000000e+00 -4.820635999999999671e-02 7.497845627000000235e+00 0.000000000000000000e+00 -5.569124060000000265e-01 4.717976529999999835e-01 3.005401459300000155e+01
4.501260012999999560e+00 0.000000000000000000e+00 0.000000000000000000e+00 -5.065695499999999657e-02 7.879002458999999625e+00 0.000000000000000000e+00 -5.852233340000000394e-01 4.957817290000000043e-01 3.158182585699999834e+01
4.264952547000000038e+00 0.000000000000000000e+00 0.000000000000000000e+00 -4.799756200000000056e-02 7.465370032000000045e+00 0.000000000000000000e+00 -5.545002380000000342e-01 4.697541450000000118e-01 2.992384093400000111e+01
4.206727655999999982e+00 0.000000000000000000e+00 0.000000000000000000e+00 1.513148940000000053e-01 7.045207450999999566e+00 0.000000000000000000e+00 7.926578260000000098e-01 1.075374810000000042e-01 3.010584830199999828e+01
4.328736404999999898e+00 0.000000000000000000e+00 0.000000000000000000e+00 -4.871538300000000099e-02 7.577017254000000257e+00 0.000000000000000000e+00 -5.627929830000000244e-01 4.767794819999999767e-01 3.037136245099999954e+01
4.300954230000000322e+00 0.000000000000000000e+00 0.000000000000000000e+00 1.547041989999999867e-01 7.203013187999999900e+00 0.000000000000000000e+00 8.104125829999999642e-01 1.099462149999999999e-01 3.078018977800000044e+01
4.312748503999999983e+00 0.000000000000000000e+00 0.000000000000000000e+00 1.551284360000000084e-01 7.222765619999999664e+00 0.000000000000000000e+00 8.126349339999999755e-01 1.102477139999999967e-01 3.086459662100000045e+01
4.199903124999999626e+00 0.000000000000000000e+00 0.000000000000000000e+00 5.767392400000000141e-02 7.506484547000000340e+00 0.000000000000000000e+00 -3.785138319999999945e-01 1.653249679999999888e-01 2.983222263400000074e+01
4.211388904999999738e+00 0.000000000000000000e+00 0.000000000000000000e+00 -5.390647000000000147e-03 7.383306335000000331e+00 0.000000000000000000e+00 1.110239870000000045e-01 1.029997609999999952e-01 3.059866935899999874e+01
4.327501104000000431e+00 0.000000000000000000e+00 0.000000000000000000e+00 -4.870148099999999786e-02 7.574854982999999820e+00 0.000000000000000000e+00 -5.626323770000000168e-01 4.766434230000000105e-01 3.036269530499999902e+01
4.240836875000000283e+00 0.000000000000000000e+00 0.000000000000000000e+00 -4.772616600000000042e-02 7.423157976999999796e+00 0.000000000000000000e+00 -5.513648820000000006e-01 4.670979749999999986e-01 2.975464010099999967e+01
4.287732805000000091e+00 0.000000000000000000e+00 0.000000000000000000e+00 -8.657099999999999496e-05 7.426520991000000294e+00 0.000000000000000000e+00 -1.445750000000000041e-04 1.777129999999999975e-04 3.025512346000000008e+01
4.441426020999999835e+00 0.000000000000000000e+00 0.000000000000000000e+00 -4.998358600000000346e-02 7.774269079999999832e+00 0.000000000000000000e+00 -5.774441230000000314e-01 4.891914410000000046e-01 3.116201746799999839e+01
4.156472688000000026e+00 0.000000000000000000e+00 0.000000000000000000e+00 -5.320352999999999888e-03 7.287028535000000140e+00 0.000000000000000000e+00 1.095762420000000043e-01 1.016566510000000007e-01 3.019966484600000101e+01
4.470685414000000080e+00 0.000000000000000000e+00 0.000000000000000000e+00 -9.632310800000000450e-02 7.411092597999999754e+00 0.000000000000000000e+00 7.155507970000000162e-01 -6.621765640000000230e-01 3.170454096199999938e+01
4.255772290000000346e+00 0.000000000000000000e+00 0.000000000000000000e+00 -4.789424800000000038e-02 7.449300916000000328e+00 0.000000000000000000e+00 -5.533066829999999658e-01 4.687430049999999904e-01 2.985943024099999832e+01
4.291916922000000412e+00 0.000000000000000000e+00 0.000000000000000000e+00 5.893747600000000253e-02 7.670940755000000166e+00 0.000000000000000000e+00 -3.868065219999999860e-01 1.689469989999999866e-01 3.048580343900000145e+01
4.325795713999999847e+00 0.000000000000000000e+00 0.000000000000000000e+00 -4.868228799999999717e-02 7.571869869999999558e+00 0.000000000000000000e+00 -5.624106540000000098e-01 4.764555859999999865e-01 3.035072991699999889e+01
4.428861916999999870e+00 0.000000000000000000e+00 0.000000000000000000e+00 -4.984219000000000149e-02 7.752276882000000313e+00 0.000000000000000000e+00 -5.758106240000000486e-01 4.878075940000000110e-01 3.107386496399999842e+01
4.173435113000000030e+00 0.000000000000000000e+00 0.000000000000000000e+00 -5.342065000000000008e-03 7.316766654000000258e+00 0.000000000000000000e+00 1.100234189999999973e-01 1.020715090000000047e-01 3.032290866299999976e+01
4.297990092000000040e+00 0.000000000000000000e+00 0.000000000000000000e+00 -4.836936499999999750e-02 7.523198928000000230e+00 0.000000000000000000e+00 -5.587955559999999711e-01 4.733929949999999831e-01 3.015563958299999925e+01
4.278682543999999588e+00 0.000000000000000000e+00 0.000000000000000000e+00 -4.815207900000000041e-02 7.489403010000000194e+00 0.000000000000000000e+00 -5.562853190000000003e-01 4.712664060000000266e-01 3.002017360099999976e+01
4.175920608000000200e+00 0.000000000000000000e+00 0.000000000000000000e+00 -4.699560099999999796e-02 7.309528585999999883e+00 0.000000000000000000e+00 -5.429249080000000394e-01 4.599479109999999871e-01 2.929917335400000056e+01
4.341127262999999736e+00 0.000000000000000000e+00 0.000000000000000000e+00 5.961324300000000326e-02 7.758894371000000234e+00 0.000000000000000000e+00 -3.912415759999999798e-01 1.708841140000000036e-01 3.083534813700000043e+01
4.288550644999999939e+00 0.000000000000000000e+00 0.000000000000000000e+00 1.542580460000000098e-01 7.182240312000000237e+00 0.000000000000000000e+00 8.080754230000000149e-01 1.096291390000000004e-01 3.069142233299999845e+01
4.225427746000000262e+00 0.000000000000000000e+00 0.000000000000000000e+00 -8.531300000000000125e-05 7.318606190999999761e+00 0.000000000000000000e+00 -1.424750000000000072e-04 1.751310000000000009e-04 2.981548616299999921e+01
4.309296030999999694e+00 0.000000000000000000e+00 0.000000000000000000e+00 -9.284589499999999773e-02 7.143556068999999731e+00 0.000000000000000000e+00 6.897197910000000265e-01 -6.382723399999999936e-01 3.056002377500000122e+01
4.178336926000000062e+00 0.000000000000000000e+00 0.000000000000000000e+00 -4.702279399999999970e-02 7.313758108000000036e+00 0.000000000000000000e+00 -5.432390620000000503e-01 4.602140510000000129e-01 2.931612677000000033e+01
4.248409466000000023e+00 0.000000000000000000e+00 0.000000000000000000e+00 -5.438033999999999576e-03 7.448209896999999913e+00 0.000000000000000000e+00 1.119999519999999998e-01 1.039051889999999950e-01 3.086764947900000067e+01
