1.868570000000000064e+00 4.319600000000000328e+00 1.925650000000000084e+00 4.104569999999999830e+00 6.432299999999999685e-01 1.674749999999999961e+00 2.762710000000000221e+00 1.789560000000000040e+00 7.471599999999999575e+00 2.794900000000000162e-01 5.834100000000000286e+00 7.810670000000000002e+00 2.926190000000000069e+00 5.838560000000000194e+00 1.217201000000000022e+01 1.073990000000000000e+00 3.096569999999999823e+00 1.197180999999999962e+01 3.879329999999999945e+00 1.714779999999999971e+00 1.883590999999999838e+01 3.955400000000000027e+00 6.943069999999999631e+00 1.531270999999999916e+01 2.286859999999999893e+00 4.723279999999999923e+00 2.216010999999999953e+01 7.299499999999999877e-01 6.340000000000000080e-01 2.284971000000000174e+01 3.501650000000000151e+00 5.481709999999999638e+00 2.861701000000000050e+01 1.518489999999999895e+00 1.451589999999999936e+00 2.732731000000000066e+01 1.976509999999999989e+00 1.730809999999999960e+00 3.199370000000000047e+00 3.679600000000000204e+00 5.696340000000000181e+00 3.083439999999999959e+00 6.642299999999999871e-01 2.750680000000000014e+00 6.222780000000000200e+00 2.460840000000000138e+00 6.588689999999999714e+00 6.169970000000000176e+00 3.329190000000000094e+00 9.351800000000000113e-01 2.967430999999999841e+01 1.645680000000000032e+00 4.028340000000000032e+00 2.956850999999999985e+01 2.834750000000000103e+00 3.170659999999999812e+00 1.361430999999999969e+01 6.709800000000000209e-01 1.623600000000000043e-01 1.276871000000000045e+01 3.822379999999999889e+00 2.000519999999999854e+00 1.606250999999999962e+01 1.818680000000000074e+00 5.418540000000000134e+00 1.612611000000000061e+01 2.494310000000000027e+00 5.213750000000000107e+00 9.575670000000000570e+00 2.999960000000000182e+00 1.686860000000000026e+00 1.054251000000000005e+01 3.210200000000000276e-01 4.047789999999999999e+00 2.373490999999999929e+01 2.717210000000000125e+00 7.058189999999999742e+00 2.418350999999999829e+01 3.758859999999999868e+00 3.213020000000000209e+00 2.668401000000000067e+01 1.566759999999999931e+00 6.201500000000000234e+00 2.680301000000000045e+01 1.179359999999999964e+00 6.778109999999999857e+00 2.057081000000000159e+01 1.925289999999999946e+00 3.064360000000000195e+00 2.003520999999999930e+01
7.694699999999999873e-01 2.258500000000000174e+00 5.992280000000000051e+00 2.407630000000000159e+00 2.374789999999999957e+00 2.999532999999999916e+01 3.231799999999999784e+00 5.503440000000000332e+00 6.801420000000000243e+00 4.272979999999999556e+00 4.134700000000000042e-01 8.779870000000000729e+00 9.926899999999999613e-01 5.394280000000000186e+00 1.339822999999999986e+01 3.189309999999999867e+00 2.866800000000000015e+00 1.206033000000000044e+01 3.598250000000000171e+00 5.494799999999999685e-01 1.571123000000000047e+01 2.206510000000000193e+00 8.668799999999999839e-01 1.873752999999999957e+01 6.549000000000000654e-02 6.580879999999999619e+00 2.118872999999999962e+01 -1.958300000000000041e-01 3.591600000000000126e+00 2.236833000000000027e+01 2.349299999999999944e+00 5.167080000000000339e+00 2.453012999999999977e+01 2.015200000000000047e-01 4.771829999999999572e+00 2.817743000000000109e+01 2.732839999999999936e+00 3.768660000000000121e+00 4.996360000000000134e+00 3.782970000000000166e+00 7.879559999999999675e+00 5.931400000000000006e+00 1.921699999999999964e+00 6.443319999999999936e+00 8.807180000000000675e+00 1.940500000000000003e-01 3.048639999999999795e+00 8.434570000000000789e+00 1.098300000000000054e+00 4.402479999999999727e+00 3.071403000000000105e+01 -3.228000000000000314e-02 7.780129999999999768e+00 3.023843000000000103e+01 3.177160000000000206e+00 4.258189999999999920e+00 1.412283000000000044e+01 1.144889999999999963e+00 7.860730000000000217e+00 1.425442999999999927e+01 3.772029999999999994e+00 6.962780000000000413e+00 1.798273000000000010e+01 2.366080000000000183e+00 2.795790000000000219e+00 1.692832999999999899e+01 9.336100000000000509e-01 4.116819999999999702e+00 1.110117999999999938e+01 3.960360000000000102e+00 5.261099999999999666e-01 1.154283000000000037e+01 2.259999999999999856e-02 6.504240000000000244e+00 2.382332999999999856e+01 2.373949999999999783e+00 2.656429999999999847e+00 2.411493000000000109e+01 -2.470999999999999863e-01 1.805069999999999952e+00 2.814762999999999948e+01 2.607920000000000016e+00 6.012109999999999843e+00 2.750022999999999840e+01 1.924269999999999925e+00 5.980999999999999650e-01 2.130863000000000085e+01 1.489829999999999988e+00 4.520719999999999850e+00 2.028962999999999894e+01
3.949570000000000025e+00 2.940850000000000186e+00 1.519069999999999920e+00 5.417300000000000448e-01 6.247460000000000235e+00 1.942229999999999901e+00 4.521600000000000064e-01 4.705339999999999634e+00 6.458120000000000083e+00 2.516270000000000007e+00 1.394619999999999971e+00 5.624290000000000234e+00 3.490120000000000111e+00 3.971350000000000158e+00 1.171340999999999966e+01 1.708229999999999915e+00 8.205000000000000071e-01 1.055072999999999972e+01 1.395080000000000098e+00 1.283179999999999987e+00 1.599860999999999933e+01 3.385089999999999932e+00 3.921180000000000110e+00 1.865580999999999889e+01 2.110679999999999890e+00 9.607499999999999929e-01 2.230990999999999858e+01 -2.400599999999999956e-01 4.309379999999999988e+00 2.257190999999999903e+01 7.743100000000000538e-01 1.316769999999999996e+00 2.795201000000000136e+01 2.924129999999999896e+00 5.431079999999999686e+00 2.797570999999999941e+01 3.820190000000000197e+00 4.262179999999999858e+00 3.983179999999999943e+00 3.262929999999999886e+00 3.933800000000000074e-01 3.046539999999999804e+00 2.152000000000000093e-02 7.283610000000000362e+00 7.058150000000000368e+00 2.523400000000000087e+00 3.249249999999999972e+00 7.454159999999999897e+00 1.643590000000000106e+00 1.434250000000000025e+00 4.817699999999999760e-01 2.523820000000000174e+00 6.025310000000000166e+00 3.033634999999999948e+01 5.674299999999999899e-01 3.379090000000000149e+00 1.385290999999999961e+01 1.819630000000000081e+00 1.676369999999999916e+00 1.320130999999999943e+01 3.429129999999999789e+00 1.416469999999999896e+00 1.786270999999999987e+01 1.557849999999999957e+00 4.406719999999999970e+00 1.681521000000000043e+01 1.505390000000000006e+00 3.499000000000000110e+00 1.010342999999999947e+01 3.724849999999999994e+00 6.778310000000000279e+00 1.022119999999999962e+01 3.909599999999999742e-01 6.995750000000000135e+00 2.371550999999999831e+01 2.334589999999999943e+00 3.188000000000000167e+00 2.399361000000000033e+01 2.857409999999999783e+00 7.976790000000000269e+00 2.678491000000000000e+01 7.511499999999999844e-01 4.080280000000000129e+00 2.763631000000000171e+01 2.632999999999999924e-02 2.042009999999999881e+00 2.089311000000000007e+01 2.112049999999999983e+00 5.581660000000000288e+00 2.091861000000000104e+01
2.438109999999999999e+00 1.368559999999999999e+00 1.427149999999999919e+00 3.895300000000000207e+00 5.544979999999999798e+00 1.232320000000000082e+00 3.396049999999999791e+00 7.076870000000000438e+00 8.070019999999999527e+00 2.759689999999999976e+00 3.393520000000000092e+00 6.345690000000000275e+00 3.325619999999999798e+00 3.110539999999999861e+00 1.136881999999999948e+01 2.474099999999999966e+00 7.223469999999999835e+00 1.178181999999999974e+01 1.876980000000000093e+00 1.364829999999999988e+00 1.698392000000000124e+01 -1.671900000000000053e-01 4.841020000000000323e+00 1.822381999999999991e+01 3.683769999999999989e+00 3.946299999999999808e-01 2.144231999999999871e+01 7.101699999999999680e-01 4.576459999999999972e+00 2.175812000000000168e+01 -2.840000000000000076e-03 2.883100000000000218e+00 2.770571999999999946e+01 2.022790000000000088e+00 6.317809999999999704e+00 2.795642000000000138e+01 2.084109999999999907e+00 1.268389999999999906e+00 3.950079999999999814e+00 3.506400000000000072e-01 6.237599999999999589e+00 3.568259999999999987e+00 2.660299999999999887e-01 1.644279999999999964e+00 6.313729999999999620e+00 1.465910000000000046e+00 5.634070000000000356e+00 6.578750000000000320e+00 -1.768599999999999894e-01 8.227600000000000469e-01 2.993552000000000035e+01 2.081150000000000055e+00 3.990990000000000038e+00 2.795999999999999874e-02 6.580300000000000038e-01 2.046339999999999826e+00 1.329721999999999937e+01 -9.883000000000000118e-02 7.421850000000000058e+00 1.336571999999999960e+01 -1.830499999999999905e-01 7.251829999999999998e+00 1.644442000000000093e+01 2.149500000000000188e+00 3.852209999999999912e+00 1.667612000000000094e+01 2.125179999999999847e+00 1.165699999999999958e+00 9.686540000000000816e+00 2.081199999999999994e-01 5.635229999999999961e+00 1.049597999999999942e+01 2.453549999999999898e+00 7.651390000000000136e+00 2.373911999999999978e+01 2.633189999999999920e+00 4.013440000000000119e+00 2.345022000000000162e+01 1.891350000000000087e+00 1.252029999999999976e+00 2.693611999999999895e+01 -6.004999999999999921e-02 5.332779999999999632e+00 2.623132000000000019e+01 3.439869999999999983e+00 2.997860000000000191e+00 2.007712000000000074e+01 1.140660000000000007e+00 6.756179999999999630e+00 2.027182000000000173e+01
3.025170000000000137e+00 2.766989999999999839e+00 5.888900000000000245e-01 7.165200000000000458e-01 5.746470000000000411e+00 2.938260000000000094e+00 2.202199999999999991e-01 5.373669999999999725e+00 6.605660000000000309e+00 2.614479999999999915e+00 1.562899999999999956e+00 5.364460000000000228e+00 3.132839999999999847e+00 3.623600000000000154e+00 1.195170000000000066e+01 1.542790000000000106e+00 7.115059999999999718e+00 1.036785000000000068e+01 1.698209999999999997e+00 1.676749999999999963e+00 1.640080000000000027e+01 3.814319999999999933e+00 4.343619999999999592e+00 1.879609999999999914e+01 2.237890000000000157e+00 1.042389999999999928e+00 2.175430000000000064e+01 3.009999999999999898e-01 4.593379999999999797e+00 2.217070000000000007e+01 1.699100000000000055e-01 2.208800000000000097e+00 2.733950000000000102e+01 2.454880000000000173e+00 5.424529999999999852e+00 2.737539999999999907e+01 3.942969999999999864e+00 2.866239999999999899e+00 3.268829999999999902e+00 2.940059999999999896e+00 7.385150000000000325e+00 2.984269999999999978e+00 4.894000000000000017e-01 6.016099999999999781e-01 7.150260000000000282e+00 2.403480000000000061e+00 3.924609999999999932e+00 6.742510000000000225e+00 8.947800000000000198e-01 1.173440000000000039e+00 4.472999999999999893e-02 3.317509999999999959e+00 5.200059999999999683e+00 2.144500000000000017e-01 9.833399999999999919e-01 4.055659999999999599e+00 1.372049999999999947e+01 7.882200000000000317e-01 1.563760000000000039e+00 1.308779999999999966e+01 -3.305100000000000260e-01 7.646679999999999922e+00 1.682969999999999899e+01 1.709780000000000078e+00 4.113240000000000229e+00 1.697309999999999874e+01 1.569550000000000001e+00 2.303220000000000045e+00 1.040822000000000003e+01 3.623650000000000038e+00 5.660619999999999763e+00 1.005158999999999914e+01 9.471300000000000274e-01 6.845069999999999766e+00 2.338739999999999952e+01 2.627270000000000216e+00 3.161039999999999850e+00 2.332260000000000133e+01 2.193599999999999994e+00 6.239700000000000246e-01 2.674259999999999948e+01 4.239499999999999935e-01 4.530260000000000176e+00 2.620200000000000173e+01 -1.756999999999999951e-01 2.106700000000000017e+00 2.026940000000000097e+01 3.137420000000000098e+00 6.173219999999999708e+00 2.026780000000000115e+01
1.854910000000000059e+00 2.650570000000000093e+00 1.154509999999999925e+00 3.624260000000000037e+00 6.191769999999999996e+00 1.343790000000000040e+00 3.503870000000000040e+00 8.019199999999999662e-01 7.541350000000000442e+00 3.080789999999999917e+00 4.878289999999999793e+00 7.580199999999999605e+00 1.789449999999999985e+00 6.336890000000000356e+00 1.133323000000000036e+01 3.890210000000000168e+00 3.290169999999999817e+00 1.270562999999999931e+01 1.932160000000000100e+00 6.729949999999999655e+00 1.777882999999999925e+01 3.801600000000000090e+00 3.266309999999999825e+00 1.845082999999999984e+01 7.841099999999999737e-01 4.970679999999999765e+00 2.339683000000000135e+01 2.424490000000000034e+00 1.049099999999999921e+00 2.139883000000000024e+01 2.664400000000000102e+00 2.806919999999999860e+00 2.745943000000000112e+01 7.075399999999999467e-01 6.465629999999999988e+00 2.751992999999999867e+01 1.576109999999999900e+00 2.121500000000000052e-01 2.586590000000000167e+00 3.768349999999999866e+00 3.638580000000000148e+00 2.317320000000000046e+00 1.824740000000000029e+00 2.937559999999999949e+00 6.413899999999999935e+00 5.424200000000000133e-01 6.298440000000000261e+00 5.954369999999999941e+00 2.261810000000000098e+00 5.450300000000000367e+00 2.936422999999999917e+01 8.413100000000000023e-01 1.772569999999999979e+00 2.927312999999999832e+01 2.084200000000000053e+00 4.816379999999999661e+00 1.355733000000000033e+01 3.635040000000000049e+00 8.755300000000000304e-01 1.248273000000000010e+01 4.004929999999999879e+00 5.303810000000000358e+00 1.683643000000000001e+01 1.950669999999999904e+00 1.827360000000000095e+00 1.721512999999999849e+01 3.983470000000000066e+00 4.892769999999999619e+00 1.013007999999999953e+01 1.360970000000000013e+00 4.626399999999999957e-01 9.341480000000000672e+00 3.134320000000000217e+00 3.158959999999999990e+00 2.377363000000000071e+01 5.258500000000000396e-01 5.947299999999999809e-01 2.357083000000000084e+01 2.909370000000000012e+00 2.561800000000000188e-01 2.623403000000000063e+01 6.699199999999999600e-01 3.952560000000000073e+00 2.624702999999999875e+01 2.823899999999999744e-01 2.824489999999999945e+00 2.081362999999999985e+01 2.481100000000000083e+00 5.843799999999999883e+00 2.094273000000000096e+01
1.493640000000000079e+00 1.458040000000000003e+00 1.216229999999999922e+00 3.463340000000000085e+00 4.960840000000000138e+00 1.715130000000000043e+00 7.132500000000000506e-01 7.160859999999999559e+00 7.529679999999999929e+00 1.960779999999999967e+00 3.655390000000000139e+00 7.197440000000000282e+00 9.279999999999999361e-02 2.845860000000000056e+00 1.149802999999999997e+01 1.954630000000000090e+00 6.319619999999999571e+00 1.122893000000000008e+01 2.614250000000000185e+00 6.461000000000000076e-01 1.665562999999999860e+01 6.260000000000000009e-01 4.039159999999999862e+00 1.770493000000000094e+01 1.532499999999999973e-01 7.001979999999999649e+00 2.087662999999999869e+01 1.396369999999999889e+00 3.377050000000000107e+00 2.130073000000000150e+01 3.982959999999999834e+00 3.016129999999999978e+00 2.650803000000000154e+01 2.113570000000000171e+00 6.676370000000000360e+00 2.735492999999999952e+01 1.820629999999999971e+00 1.120719999999999938e+00 3.780159999999999965e+00 1.628330000000000055e+00 5.961640000000000050e+00 2.855220000000000091e+00 4.106869999999999798e+00 2.254799999999999915e+00 6.177780000000000271e+00 2.758439999999999781e+00 6.116640000000000299e+00 6.302360000000000184e+00 3.730799999999999894e+00 5.920999999999999874e-02 2.929432999999999865e+01 1.239060000000000050e+00 3.616359999999999797e+00 2.922493000000000052e+01 3.329429999999999890e+00 1.031060000000000088e+00 1.301443000000000083e+01 1.836230000000000029e+00 5.147990000000000066e+00 1.352792999999999957e+01 4.922300000000000009e-01 6.409690000000000332e+00 1.607073000000000107e+01 2.650119999999999809e+00 3.261280000000000179e+00 1.618302999999999869e+01 1.561970000000000081e+00 1.254539999999999988e+00 9.751770000000000493e+00 4.117510000000000225e+00 4.835939999999999905e+00 9.787950000000000372e+00 4.013090000000000046e+00 4.955999999999999989e-02 2.326952999999999960e+01 3.009500000000000064e+00 3.950330000000000119e+00 2.318803000000000125e+01 1.849059999999999926e+00 1.723139999999999894e+00 2.579003000000000156e+01 4.028030000000000221e+00 5.581990000000000229e+00 2.597682999999999964e+01 3.847129999999999939e+00 2.341060000000000141e+00 1.952013000000000176e+01 2.223720000000000141e+00 5.595159999999999911e+00 1.985352999999999923e+01
2.335189999999999877e+00 1.152809999999999890e+00 1.349550000000000027e+00 1.461099999999999899e-01 4.763349999999999973e+00 1.034170000000000034e+00 4.520990000000000286e+00 7.295449999999999768e+00 8.347269999999999968e+00 2.225769999999999804e+00 3.904139999999999944e+00 8.081170000000000186e+00 4.800300000000000122e-01 2.251189999999999802e+00 1.189470000000000027e+01 2.611310000000000020e+00 5.672920000000000407e+00 1.198160000000000025e+01 2.534689999999999888e+00 1.196460000000000079e+00 1.840940000000000154e+01 6.999900000000000011e-01 4.715189999999999770e+00 1.837910000000000110e+01 8.024900000000000366e-01 5.920100000000000362e-01 2.179149999999999920e+01 2.762030000000000207e+00 4.161640000000000228e+00 2.224990000000000023e+01 4.775079999999999991e+00 1.992660000000000098e+00 2.883589999999999876e+01 2.801579999999999959e+00 5.593479999999999563e+00 2.857700000000000173e+01 1.063139999999999974e+00 1.728550000000000031e+00 3.566059999999999786e+00 6.408000000000000362e-01 4.043689999999999785e+00 3.413689999999999891e+00 4.347150000000000070e+00 2.549380000000000202e+00 7.202749999999999986e+00 2.221459999999999990e+00 6.406030000000000335e+00 6.958940000000000126e+00 9.989999999999999991e-01 1.408800000000000052e-01 3.102619999999999933e+01 3.188610000000000166e+00 3.740439999999999987e+00 3.075799999999999912e+01 1.539619999999999989e+00 4.073660000000000281e+00 1.351619999999999955e+01 2.145519999999999872e+00 7.161859999999999893e+00 1.409869999999999912e+01 4.949270000000000280e+00 7.174430000000000085e+00 1.728999999999999915e+01 2.890530000000000044e+00 3.500509999999999788e+00 1.717830000000000013e+01 2.983130000000000059e+00 9.824399999999999800e-01 1.057290000000000063e+01 7.749500000000000277e-01 4.929389999999999716e+00 1.018601999999999919e+01 4.408599999999999852e+00 2.958200000000000274e-01 2.450900000000000034e+01 4.075260000000000105e+00 2.656870000000000065e+00 2.443840000000000146e+01 2.574619999999999909e+00 8.656700000000000506e-01 2.754939999999999856e+01 4.974739999999999718e+00 4.397509999999999586e+00 2.744160000000000110e+01 6.909800000000000386e-01 3.023690000000000211e+00 2.049330000000000140e+01 3.045599999999999863e+00 6.754100000000000215e+00 2.041769999999999996e+01
2.072750000000000092e+00 7.271959999999999980e+00 2.020220000000000127e+00 4.115359999999999907e+00 3.225480000000000125e+00 1.272680000000000033e+00 5.072400000000000242e-01 6.063399999999999901e-01 8.120240000000000791e+00 2.857120000000000104e+00 4.535540000000000127e+00 7.173129999999999562e+00 2.935869999999999980e+00 7.206489999999999618e+00 1.159426999999999985e+01 4.368699999999999806e-01 3.410989999999999966e+00 1.176646999999999998e+01 2.256299999999999972e-01 5.357940000000000147e+00 1.718617000000000061e+01 3.631369999999999987e+00 2.283399999999999874e+00 1.891976999999999975e+01 3.583540000000000170e+00 4.408009999999999984e+00 2.284506999999999977e+01 1.492809999999999970e+00 8.303399999999999670e-01 2.186816999999999922e+01 2.723860000000000170e+00 4.596090000000000231e+00 2.779557000000000144e+01 8.299400000000000110e-01 1.310740000000000016e+00 2.792537000000000091e+01 4.020050000000000345e+00 5.620149999999999757e+00 2.890410000000000146e+00 2.280079999999999885e+00 2.293449999999999989e+00 2.998130000000000184e+00 8.339900000000000091e-01 3.084249999999999936e+00 6.506579999999999586e+00 2.531309999999999949e+00 7.265719999999999956e+00 6.646799999999999820e+00 2.019579999999999931e+00 4.563489999999999824e+00 1.796999999999999986e-02 4.237049999999999983e+00 8.674699999999999633e-01 3.019957000000000136e+01 7.764100000000000446e-01 1.113199999999999967e+00 1.296936999999999962e+01 2.562990000000000101e+00 4.750689999999999635e+00 1.260857000000000028e+01 8.241399999999999837e-01 2.782270000000000021e+00 1.685837000000000074e+01 2.155279999999999863e+00 6.732020000000000337e+00 1.647356999999999871e+01 3.131780000000000008e+00 1.839749999999999996e+00 9.819010000000000460e+00 1.206919999999999993e+00 5.321449999999999569e+00 9.676740000000000563e+00 1.419939999999999980e+00 6.005029999999999646e+00 2.385247000000000028e+01 3.420609999999999928e+00 1.859620000000000051e+00 2.343127000000000137e+01 7.505500000000000504e-01 3.642319999999999780e+00 2.668577000000000155e+01 2.608439999999999870e+00 7.075549999999999784e+00 2.662146999999999863e+01 2.952620000000000022e+00 4.529849999999999710e+00 2.011096999999999824e+01 2.964379999999999793e+00 7.264520000000000088e+00 1.988166999999999973e+01
1.916099999999999914e+00 5.910289999999999822e+00 1.625830000000000108e+00 3.648309999999999942e+00 2.006959999999999855e+00 1.763209999999999944e+00 1.476650000000000018e+00 6.009210000000000385e+00 8.097329999999999472e+00 3.274880000000000013e+00 1.991519999999999957e+00 8.093479999999999563e+00 1.751030000000000086e+00 1.214970000000000105e+00 1.154466000000000037e+01 2.158499999999999863e-01 4.590220000000000411e+00 1.216656000000000049e+01 3.667699999999999960e+00 3.620480000000000143e+00 1.688485999999999976e+01 1.885709999999999997e+00 7.392389999999999795e+00 1.684186000000000050e+01 1.544319999999999915e+00 1.902519999999999989e+00 2.065935999999999950e+01 -9.429999999999999147e-03 5.529460000000000264e+00 2.106266000000000105e+01 5.205600000000000227e-01 3.216889999999999805e+00 2.673066000000000031e+01 2.626669999999999838e+00 7.111309999999999576e+00 2.667005999999999943e+01 4.056790000000000340e+00 7.080689999999999706e+00 2.940879999999999939e+00 1.841690000000000049e+00 3.508599999999999941e+00 2.815819999999999990e+00 1.015970000000000040e+00 1.068370000000000042e+00 6.588669999999999582e+00 3.198679999999999968e+00 4.741710000000000313e+00 6.786080000000000112e+00 2.701830000000000176e+00 5.221499999999999808e+00 2.851005999999999929e+01 1.461600000000000121e-01 1.140030000000000099e+00 2.832656000000000063e+01 3.433959999999999901e+00 2.459999999999999964e+00 1.323715999999999937e+01 2.058840000000000003e+00 6.249310000000000365e+00 1.289395999999999987e+01 2.016599999999999948e+00 2.470800000000000107e+00 1.531185999999999936e+01 3.781909999999999883e+00 6.078630000000000422e+00 1.584726000000000035e+01 3.724330000000000140e+00 8.415999999999999870e-02 1.010055999999999976e+01 1.632339999999999902e+00 3.612659999999999982e+00 9.967919999999999447e+00 3.727360000000000007e+00 3.200660000000000061e+00 2.209215999999999980e+01 1.961489999999999956e+00 7.025830000000000020e+00 2.199416000000000082e+01 2.640979999999999883e+00 2.207800000000000207e+00 2.551455999999999946e+01 4.211599999999999788e-01 5.732400000000000162e+00 2.563736000000000104e+01 1.936890000000000001e+00 4.107870000000000132e+00 1.879845999999999862e+01 -5.605999999999999872e-02 3.064600000000000102e-01 1.908236000000000132e+01
2.682739999999999903e+00 1.823779999999999957e+00 1.491500000000000048e+00 1.744100000000000095e-01 5.111309999999999576e+00 2.014240000000000030e+00 8.419999999999999707e-02 5.514350000000000307e+00 7.184239999999999959e+00 2.051950000000000163e+00 1.707459999999999978e+00 7.150350000000000428e+00 4.104519999999999946e+00 1.795169999999999932e+00 1.182418999999999976e+01 1.948700000000000099e+00 6.242040000000000255e+00 1.065939000000000014e+01 2.381559999999999899e+00 1.980359999999999898e+00 1.796629000000000076e+01 2.967199999999999838e-01 5.711030000000000051e+00 1.832098999999999833e+01 3.468890000000000029e+00 6.437789999999999679e+00 2.276979000000000042e+01 1.212259999999999893e+00 2.948189999999999866e+00 2.225648999999999944e+01 8.928899999999999615e-01 2.750210000000000043e+00 2.855769000000000091e+01 2.861279999999999824e+00 7.127100000000000435e+00 2.796939000000000064e+01 4.349600000000000133e-01 2.822560000000000180e+00 3.102939999999999809e+00 2.410070000000000157e+00 6.475459999999999994e+00 2.903659999999999908e+00 4.030579999999999607e+00 4.997699999999999920e-01 6.031939999999999635e+00 2.115990000000000038e+00 4.283719999999999750e+00 6.216359999999999886e+00 4.273100000000000342e+00 4.581399999999999917e-01 3.033039000000000129e+01 2.087359999999999882e+00 4.412550000000000416e+00 3.022578999999999994e+01 2.157259999999999955e+00 2.095709999999999962e+00 1.359739000000000075e+01 1.590470000000000050e+00 6.936519999999999797e+00 1.311448999999999998e+01 3.846399999999999819e-01 7.595899999999999874e-01 1.671718999999999866e+01 2.340069999999999872e+00 4.664559999999999818e+00 1.678138999999999825e+01 1.801010000000000000e+00 1.557870000000000088e+00 9.762130000000000862e+00 4.098900000000000432e+00 4.940100000000000158e+00 9.663320000000000576e+00 1.283949999999999925e+00 5.918600000000000527e-01 2.357139000000000095e+01 3.357650000000000023e+00 3.965559999999999974e+00 2.377119000000000071e+01 2.930060000000000109e+00 2.266039999999999832e+00 2.682538999999999874e+01 8.033299999999999885e-01 5.707200000000000273e+00 2.717558999999999969e+01 2.945310000000000095e+00 1.961719999999999908e+00 2.051529000000000025e+01 7.246099999999999763e-01 5.571699999999999875e+00 2.084409000000000134e+01
2.711770000000000014e+00 1.394830000000000014e+00 1.301870000000000083e+00 3.945419999999999927e+00 5.110520000000000174e+00 2.152779999999999916e+00 3.708849999999999980e+00 1.234999999999999987e-02 7.284799999999999720e+00 1.769770000000000065e+00 3.534930000000000128e+00 7.255469999999999864e+00 3.723240000000000105e+00 2.367879999999999985e+00 1.104066000000000081e+01 1.905999999999999917e+00 6.155879999999999797e+00 1.076506000000000007e+01 2.636340000000000128e+00 1.322030000000000038e+00 1.772006000000000014e+01 5.789600000000000302e-01 5.014029999999999987e+00 1.756296000000000035e+01 3.804600000000000204e-01 6.777689999999999770e+00 2.151276000000000010e+01 2.677529999999999966e+00 3.125809999999999977e+00 2.166715999999999909e+01 3.740520000000000067e+00 2.756149999999999878e+00 2.707176000000000116e+01 1.615879999999999983e+00 6.355209999999999582e+00 2.712115999999999971e+01 1.543369999999999909e+00 3.775899999999999812e-01 3.561069999999999958e+00 1.683370000000000033e+00 3.020509999999999806e+00 3.273229999999999862e+00 3.859160000000000146e+00 2.431789999999999896e+00 6.002939999999999721e+00 1.641650000000000054e+00 5.991329999999999600e+00 5.996319999999999872e+00 6.031800000000000495e-01 7.132880000000000109e+00 6.555999999999999328e-02 2.636029999999999873e+00 3.598419999999999952e+00 2.918365999999999971e+01 1.861410000000000009e+00 2.522990000000000066e+00 1.305516000000000076e+01 1.431329999999999991e+00 1.355300000000000116e-01 1.310036000000000023e+01 6.049900000000000277e-01 1.497699999999999865e-01 1.636606000000000094e+01 2.557980000000000143e+00 3.682900000000000063e+00 1.627265999999999835e+01 2.140789999999999971e+00 1.110589999999999966e+00 9.336830000000000851e+00 3.976729999999999876e+00 4.747609999999999886e+00 9.668279999999999319e+00 2.741740000000000066e+00 5.610600000000000032e-01 2.307636000000000109e+01 4.967900000000000094e-01 4.126579999999999693e+00 2.288935999999999993e+01 1.622430000000000039e+00 1.557260000000000089e+00 2.594256000000000029e+01 3.625929999999999875e+00 5.189809999999999590e+00 2.591565999999999903e+01 4.701000000000000317e-02 1.683070000000000066e+00 1.977255999999999858e+01 2.161290000000000155e+00 5.430369999999999919e+00 1.969785999999999859e+01
1.319669999999999899e+00 1.644290000000000029e+00 2.696219999999999839e+00 4.343969999999999665e+00 4.764020000000000366e+00 1.228450000000000042e+00 3.473009999999999931e+00 1.089660000000000073e+00 7.151010000000000311e+00 9.015800000000000480e-01 4.957650000000000112e+00 7.117589999999999861e+00 5.613799999999999901e-01 3.090269999999999850e+00 1.068440999999999974e+01 2.203370000000000051e+00 6.243629999999999569e+00 1.190245999999999960e+01 2.925860000000000127e+00 2.106209999999999916e+00 1.888126000000000104e+01 4.894200000000000217e-01 5.558709999999999596e+00 1.941685999999999979e+01 3.365650000000000031e+00 7.705820000000000114e+00 2.352796000000000021e+01 1.548389999999999933e+00 3.546889999999999876e+00 2.332786000000000115e+01 3.184199999999999808e-01 2.461479999999999890e+00 2.918425999999999831e+01 2.903449999999999864e+00 6.306670000000000442e+00 2.959336000000000055e+01 3.696499999999999897e+00 4.271499999999999742e-01 3.572259999999999991e+00 1.773339999999999916e+00 4.403129999999999988e+00 2.877219999999999889e+00 3.117900000000000116e+00 4.321150000000000269e+00 6.093140000000000001e+00 1.100940000000000030e+00 7.726630000000000109e+00 6.563449999999999562e+00 4.055799999999999628e+00 7.014680000000000248e+00 5.952000000000000346e-02 1.293970000000000065e+00 2.892100000000000115e+00 1.282999999999999939e-02 4.901400000000000201e-01 4.460779999999999745e+00 1.303456000000000081e+01 4.309140000000000192e+00 6.627200000000000202e+00 1.351205999999999996e+01 7.743499999999999828e-01 4.723800000000000221e-01 1.794856000000000051e+01 2.684930000000000039e+00 4.788319999999999688e+00 1.832755999999999830e+01 3.146700000000000053e+00 1.604630000000000001e+00 1.016602999999999923e+01 9.522300000000000209e-01 5.498990000000000045e+00 9.679360000000000852e+00 1.798999999999999905e-02 6.839920000000000222e+00 2.559265999999999863e+01 3.715110000000000134e+00 2.615069999999999784e+00 2.449155999999999977e+01 2.522790000000000088e+00 1.282759999999999900e+00 2.860546000000000078e+01 8.842200000000000060e-01 5.431470000000000020e+00 2.812425999999999959e+01 4.226099999999999857e-01 3.097010000000000041e+00 2.098076000000000008e+01 8.297099999999999476e-01 6.466239999999999988e+00 2.195065999999999917e+01