8.162021679330742074e+00 -4.695011181145538097e-18 -1.326939863954938591e-17 -4.004689681451713668e+00 7.285108986866577929e+00 2.219607936740383566e-17 4.572143686443865818e-01 -5.402903335996093320e-02 1.067942431531125713e+01
8.162023217705391076e+00 2.746394913932668701e-18 2.207084305649240969e-17 -4.004690461332799600e+00 7.285110588956725586e+00 -2.640146421710075643e-18 4.572147465202436867e-01 -5.402932529929775629e-02 1.067942619782536617e+01
8.162025924390073683e+00 -4.422186524599423908e-18 -1.030292499978165753e-17 -4.004692021081958764e+00 7.285113442641284465e+00 -9.230975432165464084e-18 4.572156800503580643e-01 -5.402961933082501417e-02 1.067942958558746014e+01
8.162029856392193139e+00 2.476824357104775904e-18 2.411431706144503593e-17 -4.004694428713442278e+00 7.285117601140930432e+00 -6.244779278748852982e-18 4.572171180833535242e-01 -5.402988901901008972e-02 1.067943452579257446e+01
8.162035195731183634e+00 -3.154922629756521755e-19 -2.775592863609950448e-17 -4.004697808163132144e+00 7.285123240642686682e+00 1.628864909920615876e-17 4.572189924407886186e-01 -5.403013944423925435e-02 1.067944120798643226e+01
8.162041779382819939e+00 5.427945252340326207e-18 1.146350663205193341e-17 -4.004702075648584270e+00 7.285130176129137602e+00 -1.171041169251202091e-17 4.572211515808731197e-01 -5.403035170242770358e-02 1.067944938743662497e+01
8.162049246274728276e+00 6.209995899225507383e-18 -2.803225394950717899e-18 -4.004707039213985631e+00 7.285138026530069588e+00 -1.214324944242612076e-17 4.572234806994571743e-01 -5.403047361443930746e-02 1.067945859663679364e+01
8.162057651398544778e+00 -2.775471358958542666e-18 9.620448981461412060e-18 -4.004712769946339179e+00 7.285146845582643138e+00 -6.895782970591882277e-18 4.572259994380112325e-01 -5.403047028876866581e-02 1.067946888229067071e+01
8.162067291831776927e+00 7.251520367312303344e-18 2.292764101177256998e-17 -4.004719481743204135e+00 7.285156927657080672e+00 1.975260248790783188e-17 4.572287221974313254e-01 -5.403034253222251115e-02 1.067948055214440295e+01
8.162077987527236900e+00 1.759822177739614609e-18 -1.697944474583407801e-17 -4.004727052700604695e+00 7.285168068075051018e+00 6.329126401817408633e-18 4.572315136402193558e-01 -5.403010423223347791e-02 1.067949332504307769e+01
8.311499266000000219e+00 0.000000000000000000e+00 0.000000000000000000e+00 -4.178251054999999603e+00 7.191501470999999590e+00 0.000000000000000000e+00 3.124292459999999938e-01 4.599875300000000333e-02 1.051467614999999967e+01
8.311501550999999210e+00 0.000000000000000000e+00 0.000000000000000000e+00 -4.178252587000000240e+00 7.191502354999999902e+00 0.000000000000000000e+00 3.124286980000000047e-01 4.599917700000000220e-02 1.051467701900000051e+01
8.311505635999999697e+00 0.000000000000000000e+00 0.000000000000000000e+00 -4.178255382999999767e+00 7.191503926000000213e+00 0.000000000000000000e+00 3.124275429999999742e-01 4.599991800000000075e-02 1.051467840399999965e+01
8.311511640000000867e+00 0.000000000000000000e+00 0.000000000000000000e+00 -4.178259512000000342e+00 7.191506247999999601e+00 0.000000000000000000e+00 3.124257650000000219e-01 4.600093499999999974e-02 1.051468033999999996e+01
8.311519796000000682e+00 0.000000000000000000e+00 0.000000000000000000e+00 -4.178265107999999728e+00 7.191509435000000394e+00 0.000000000000000000e+00 3.124233450000000190e-01 4.600219299999999678e-02 1.051468291099999952e+01
8.311529757000000629e+00 0.000000000000000000e+00 0.000000000000000000e+00 -4.178271915999999919e+00 7.191513364000000408e+00 0.000000000000000000e+00 3.124204150000000069e-01 4.600357900000000277e-02 1.051468597899999935e+01
8.311541013999999450e+00 0.000000000000000000e+00 0.000000000000000000e+00 -4.178279586999999573e+00 7.191517833999999887e+00 0.000000000000000000e+00 3.124171099999999979e-01 4.600499100000000202e-02 1.051468932699999925e+01
8.311553756000000348e+00 0.000000000000000000e+00 0.000000000000000000e+00 -4.178288241999999819e+00 7.191522922999999956e+00 0.000000000000000000e+00 3.124133740000000214e-01 4.600641899999999979e-02 1.051469294800000043e+01
8.311568354000000269e+00 0.000000000000000000e+00 0.000000000000000000e+00 -4.178298112000000231e+00 7.191528783999999952e+00 0.000000000000000000e+00 3.124091440000000275e-01 4.600785300000000133e-02 1.051469689900000049e+01
8.311584300999999897e+00 0.000000000000000000e+00 0.000000000000000000e+00 -4.178308834000000083e+00 7.191535218000000285e+00 0.000000000000000000e+00 3.124046059999999736e-01 4.600919500000000273e-02 1.051470097800000048e+01
8.015062867999999341e+00 0.000000000000000000e+00 0.000000000000000000e+00 -4.124250320999999886e+00 7.437727760999999660e+00 0.000000000000000000e+00 4.450082879999999741e-01 -2.138744890000000010e-01 1.076451841199999926e+01
8.015063743000000684e+00 0.000000000000000000e+00 0.000000000000000000e+00 -4.124251472000000085e+00 7.437730439000000082e+00 0.000000000000000000e+00 4.450085080000000248e-01 -2.138759869999999896e-01 1.076452082499999996e+01
8.015065181000000649e+00 0.000000000000000000e+00 0.000000000000000000e+00 -4.124253644000000385e+00 7.437735398000000053e+00 0.000000000000000000e+00 4.450088569999999799e-01 -2.138789540000000100e-01 1.076452514800000060e+01
8.015067211999999941e+00 0.000000000000000000e+00 0.000000000000000000e+00 -4.124256903000000030e+00 7.437742715999999810e+00 0.000000000000000000e+00 4.450092680000000134e-01 -2.138833800000000118e-01 1.076453143700000048e+01
8.015069959999999938e+00 0.000000000000000000e+00 0.000000000000000000e+00 -4.124261415000000319e+00 7.437752680000000005e+00 0.000000000000000000e+00 4.450096740000000217e-01 -2.138893360000000132e-01 1.076453995299999988e+01
8.015073372999999890e+00 0.000000000000000000e+00 0.000000000000000000e+00 -4.124267088999999942e+00 7.437765017000000256e+00 0.000000000000000000e+00 4.450099820000000261e-01 -2.138965690000000086e-01 1.076455045800000043e+01
8.015077264000000312e+00 0.000000000000000000e+00 0.000000000000000000e+00 -4.124273657999999898e+00 7.437779096999999950e+00 0.000000000000000000e+00 4.450101220000000080e-01 -2.139046870000000100e-01 1.076456237899999913e+01
8.015081617999999963e+00 0.000000000000000000e+00 0.000000000000000000e+00 -4.124281153000000089e+00 7.437794947999999629e+00 0.000000000000000000e+00 4.450100430000000218e-01 -2.139136949999999870e-01 1.076457569699999972e+01
8.015086608000000723e+00 0.000000000000000000e+00 0.000000000000000000e+00 -4.124289871000000218e+00 7.437813146999999958e+00 0.000000000000000000e+00 4.450096749999999934e-01 -2.139238410000000035e-01 1.076459086999999926e+01
8.015092217999999491e+00 0.000000000000000000e+00 0.000000000000000000e+00 -4.124299770999999559e+00 7.437833546000000240e+00 0.000000000000000000e+00 4.450089420000000184e-01 -2.139349399999999901e-01 1.076460774699999945e+01
7.953723456999999719e+00 0.000000000000000000e+00 0.000000000000000000e+00 -3.828899386999999876e+00 7.186509232999999774e+00 0.000000000000000000e+00 2.594650840000000125e-01 -2.502282399999999907e-01 1.097876650399999932e+01
7.953723630999999905e+00 0.000000000000000000e+00 0.000000000000000000e+00 -3.828898925999999925e+00 7.186510277000000002e+00 0.000000000000000000e+00 2.594646600000000136e-01 -2.502297310000000108e-01 1.097876961599999923e+01
7.953723719000000081e+00 0.000000000000000000e+00 0.000000000000000000e+00 -3.828897927999999951e+00 7.186512113000000035e+00 0.000000000000000000e+00 2.594638839999999780e-01 -2.502327480000000048e-01 1.097877525400000032e+01
7.953723700000000285e+00 0.000000000000000000e+00 0.000000000000000000e+00 -3.828896358999999805e+00 7.186514772999999856e+00 0.000000000000000000e+00 2.594628239999999808e-01 -2.502373880000000050e-01 1.097878352000000035e+01
7.953723573999999630e+00 0.000000000000000000e+00 0.000000000000000000e+00 -3.828894143999999944e+00 7.186518385000000286e+00 0.000000000000000000e+00 2.594615430000000167e-01 -2.502438670000000087e-01 1.097879479600000074e+01
7.953723324000000261e+00 0.000000000000000000e+00 0.000000000000000000e+00 -3.828891308000000215e+00 7.186522872000000284e+00 0.000000000000000000e+00 2.594601770000000140e-01 -2.502520759999999900e-01 1.097880885100000015e+01
7.953722913000000005e+00 0.000000000000000000e+00 0.000000000000000000e+00 -3.828887953999999816e+00 7.186528005999999635e+00 0.000000000000000000e+00 2.594588700000000081e-01 -2.502616599999999969e-01 1.097882498200000079e+01
7.953722286999999724e+00 0.000000000000000000e+00 0.000000000000000000e+00 -3.828884044000000042e+00 7.186533771999999765e+00 0.000000000000000000e+00 2.594576889999999914e-01 -2.502726699999999749e-01 1.097884316700000085e+01
7.953721392000000279e+00 0.000000000000000000e+00 0.000000000000000000e+00 -3.828879398000000212e+00 7.186540395999999831e+00 0.000000000000000000e+00 2.594566979999999856e-01 -2.502855520000000222e-01 1.097886410699999971e+01
7.953720205999999848e+00 0.000000000000000000e+00 0.000000000000000000e+00 -3.828873986000000063e+00 7.186547888999999856e+00 0.000000000000000000e+00 2.594560349999999738e-01 -2.503003149999999954e-01 1.097888780999999980e+01
7.946578925999999932e+00 0.000000000000000000e+00 0.000000000000000000e+00 -4.101737908999999682e+00 7.344450478999999810e+00 0.000000000000000000e+00 4.325131150000000035e-01 1.240212730000000013e-01 1.037784104400000018e+01
7.946578500000000211e+00 0.000000000000000000e+00 0.000000000000000000e+00 -4.101738520999999693e+00 7.344451678000000427e+00 0.000000000000000000e+00 4.325135469999999982e-01 1.240215280000000059e-01 1.037784043499999953e+01
7.946577424000000001e+00 0.000000000000000000e+00 0.000000000000000000e+00 -4.101739642000000075e+00 7.344453741999999785e+00 0.000000000000000000e+00 4.325142220000000037e-01 1.240221080000000059e-01 1.037783908199999949e+01
7.946575662999999956e+00 0.000000000000000000e+00 0.000000000000000000e+00 -4.101741299999999590e+00 7.344456689000000260e+00 0.000000000000000000e+00 4.325150879999999920e-01 1.240230840000000057e-01 1.037783697100000069e+01
7.946573161999999968e+00 0.000000000000000000e+00 0.000000000000000000e+00 -4.101743571000000088e+00 7.344460626000000047e+00 0.000000000000000000e+00 4.325161129999999798e-01 1.240245569999999936e-01 1.037783406099999972e+01
7.946569972999999898e+00 0.000000000000000000e+00 0.000000000000000000e+00 -4.101746400999999764e+00 7.344465430999999711e+00 0.000000000000000000e+00 4.325172070000000146e-01 1.240265589999999946e-01 1.037783043700000007e+01
7.946566215999999905e+00 0.000000000000000000e+00 0.000000000000000000e+00 -4.101749641999999696e+00 7.344470819999999733e+00 0.000000000000000000e+00 4.325182570000000171e-01 1.240290470000000034e-01 1.037782626699999966e+01
7.946561838000000044e+00 0.000000000000000000e+00 0.000000000000000000e+00 -4.101753285000000027e+00 7.344476743000000418e+00 0.000000000000000000e+00 4.325192130000000135e-01 1.240320770000000045e-01 1.037782151899999938e+01
7.946556666000000213e+00 0.000000000000000000e+00 0.000000000000000000e+00 -4.101757457999999801e+00 7.344483384000000115e+00 0.000000000000000000e+00 4.325200539999999871e-01 1.240358240000000029e-01 1.037781602199999931e+01
7.946550721000000372e+00 0.000000000000000000e+00 0.000000000000000000e+00 -4.101762152000000050e+00 7.344490695000000180e+00 0.000000000000000000e+00 4.325207169999999990e-01 1.240403509999999931e-01 1.037780981999999952e+01
