2.204886303925579050e+00 1.291083480144403550e+00 2.013232860391369616e+00 2.025460384583977480e-01 4.933641942802622360e+00 2.013235271254598224e+00 6.285894622672320686e+00 1.291087498648962884e+00 2.013230924780258668e+00 4.283554357205139773e+00 4.933645961307181693e+00 2.013233335643486832e+00 3.022883723622147301e-01 2.580737662282844624e+00 8.659062028569231018e+00 -1.700052165704095675e+00 6.223286149970880921e+00 8.659054418172079437e+00 4.383296636156885029e+00 2.580731680966382058e+00 8.659060069298062601e+00 2.380956370689704560e+00 6.223290143624600645e+00 8.659062480161290765e+00 4.246565911401996907e+00 6.772004388732653979e+00 2.157892036687784551e-02 6.248916391996420572e+00 3.129445846799664643e+00 2.158628932424909788e-02 1.655575926552551314e-01 6.772000370228094646e+00 2.158085597798885952e-02 2.167907910554692119e+00 3.129451852966967262e+00 2.157825099509521824e-02 2.295895366336071053e+00 1.271251809524709842e+00 7.330718817081767646e+00 2.935551008688897512e-01 4.913810272182929317e+00 7.330721227944996699e+00 6.376903685082813134e+00 1.271255828029269175e+00 7.330716881470657142e+00 4.374563364663560883e+00 4.913804290866465863e+00 7.330719268673827393e+00 1.794607234932149853e-01 2.547080549565012841e+00 3.334253912849302726e+00 -1.822879541973966289e+00 6.189639012223231873e+00 3.334256323712530445e+00 4.260469042239957815e+00 2.547084568069572175e+00 3.334251977238191333e+00 2.258128721820704676e+00 6.189633030906768418e+00 3.334254364441362917e+00
2.206535454036822497e+00 1.290724558785756537e+00 2.017397074630035814e+00 2.134326259241890456e-01 4.931085131147747269e+00 2.003489635552107906e+00 6.289399079300405759e+00 1.288905437269889598e+00 2.014399509549015033e+00 4.287969651910426450e+00 4.936013550586829446e+00 2.008241924375243848e+00 2.877109698135120741e-01 2.567416798937170785e+00 8.663597286403851072e+00 -1.697580776884203502e+00 6.229883022565521067e+00 8.654685974748193900e+00 4.385960471405226713e+00 2.579102224629605811e+00 8.656857514178080137e+00 2.380592603510009564e+00 6.224195710506977619e+00 8.666014316444437426e+00 4.250716280996075014e+00 6.780436569684249903e+00 1.530803917506645857e-02 6.258006559031485949e+00 3.127348749260292493e+00 1.191091176152095019e-02 1.642315628575934661e-01 6.766882120843245474e+00 2.810856405778330847e-02 2.161927162116563217e+00 3.135979921440142260e+00 2.365514165897348448e-02 2.296023730163009535e+00 1.275030327687517673e+00 7.331075498984128913e+00 2.789391505672813576e-01 4.900412896743267410e+00 7.338097816540269491e+00 6.382666545605569119e+00 1.274669123249511760e+00 7.324418425823431278e+00 4.379195884440617803e+00 4.912157906422420339e+00 7.335325457617409839e+00 1.710312796124561774e-01 2.556805985687932825e+00 3.334701653288414391e+00 -1.832031070391406891e+00 6.179522189901036633e+00 3.341412080160304665e+00 4.265043645257341254e+00 2.547666372255264822e+00 3.339775183920268731e+00 2.253783165197493776e+00 6.204349619476079880e+00 3.328994254272509945e+00
2.208218134126691545e+00 1.290375076310548597e+00 2.021720620573124627e+00 2.246138026916777164e-01 4.928467259507114839e+00 1.993507379421208814e+00 6.292994219215132468e+00 1.286692786867263738e+00 2.015606053212948279e+00 4.292503017320107084e+00 4.938470758327754950e+00 2.003138138531507018e+00 2.727439173156858687e-01 2.553707792171647117e+00 8.668250088355152982e+00 -1.695011307439183934e+00 6.236649671506310888e+00 8.650185786742014216e+00 4.388702488996700346e+00 2.577422507888156744e+00 8.654583114876515992e+00 2.380232972674285907e+00 6.225100805501635470e+00 8.673156106645205199e+00 4.254983366934308009e+00 6.789068590685749527e+00 8.835065173091837323e-03 6.267340399997954670e+00 3.125140938770923249e+00 1.969891235916165165e-03 1.628677114463732145e-01 6.761603744095577184e+00 3.477673073911337343e-02 2.155808034144600427e+00 3.142638649965946662e+00 2.577537890711105451e-02 2.296136786611060465e+00 1.278948505092927457e+00 7.331612904265472963e+00 2.639192713650332922e-01 4.886676864497867534e+00 7.345842443000219824e+00 6.388559215603490493e+00 1.278171783826326235e+00 7.318087358665374964e+00 4.383924366616360757e+00 4.910490336765607644e+00 7.340209571471303818e+00 1.623802754391312775e-01 2.566832986690186225e+00 3.335004930534204437e+00 -1.841413533639890687e+00 6.169146574582707210e+00 3.348592225389993349e+00 4.269738220613188417e+00 2.548287547358773608e+00 3.345285873854600300e+00 2.249343192854278417e+00 6.219487460731731865e+00 3.323427171755218179e+00
2.209870986756753641e+00 1.290055756460497971e+00 2.026044890769665319e+00 2.356585544436467505e-01 4.925899776098784599e+00 1.983678254593592039e+00 6.296539648774374776e+00 1.284570431581560479e+00 2.016803900883433531e+00 4.296958307001943922e+00 4.940918177804075384e+00 1.998126049585522646e+00 2.579957830176413114e-01 2.540127784390135091e+00 8.672818425968248590e+00 -1.692471508811995262e+00 6.243316385999067464e+00 8.645726006060751700e+00 4.391435490036169398e+00 2.575762745504842410e+00 8.652348970945411111e+00 2.379890778381209770e+00 6.225976065305441232e+00 8.680187416722052518e+00 4.259201002246586043e+00 6.797560737068499392e+00 2.422834384008335559e-03 6.733715133891269744e+00 3.068852628654366921e+00 1.067162987597512469e+01 1.615110854386240524e-01 6.756375659935016209e+00 4.130483165604600937e-02 2.149787513760336388e+00 3.149166911061379803e+00 2.786313794754808476e-02 2.296232840545694209e+00 1.282856443401938717e+00 7.332290687781109817e+00 2.491021824419964448e-01 4.873139541243015849e+00 7.353663167950816870e+00 6.394335992197947682e+00 1.281584576888551652e+00 7.311968641293757010e+00 4.388555543327023578e+00 4.908873036814064506e+00 7.345205954939148185e+00 1.538652043346893650e-01 2.576759625093715034e+00 3.335144960699900629e+00 -1.850631254272741666e+00 6.158930727015604845e+00 3.355489114306875020e+00 4.274377152125340196e+00 2.548949664636997792e+00 3.350527811992582539e+00 2.244980305520967168e+00 6.234415069026226774e+00 3.317777869361013821e+00
2.211462930854095177e+00 1.289766887211138968e+00 2.030320550704225013e+00 2.463806831720211643e-01 4.923393292538380983e+00 1.974176381341790742e+00 6.299974786873876909e+00 1.282588797413180215e+00 2.017954487768166771e+00 4.301266896427562436e+00 4.943326017266398864e+00 1.993277094288077311e+00 2.437062982679880918e-01 2.526875615742043557e+00 8.677237559935349509e+00 -1.689990238524528010e+00 6.249773133035152917e+00 8.641387005833250257e+00 4.394100251150701020e+00 2.574143190414839300e+00 8.650186429475276384e+00 2.379583237183473976e+00 6.226791680876331725e+00 8.686987768662087106e+00 4.720528520564783115e+00 6.751751983220684039e+00 1.067561956154817260e+01 6.742540093371471421e+00 3.066586358087445952e+00 1.066221991333747532e+01 1.601799442711101251e-01 6.751318030748762133e+00 4.758274098806007657e-02 2.143964480658144822e+00 3.155444212601782983e+00 2.989596183706264357e-02 2.296311833830389837e+00 1.286704119587794404e+00 7.333118728988799795e+00 2.347163666069403132e-01 4.860009970360481546e+00 7.361435507714751303e+00 6.399888583988172286e+00 1.284817855630226324e+00 7.306164432990241764e+00 4.392997534072791588e+00 4.907356745183076185e+00 7.350216710419940291e+00 1.456353662064604759e-01 2.586425062865895352e+00 3.335128095919114521e+00 -1.859545946296076613e+00 6.149044180502575507e+00 3.361980128249010935e+00 4.278868773379014279e+00 2.549623389217303249e+00 3.355432904448850007e+00 2.240775066906103952e+00 6.248881790352603716e+00 3.312133991467067329e+00
2.213058086871539931e+00 1.289507669333214812e+00 2.034736248132248626e+00 2.572115861219575472e-01 4.920866334789667285e+00 1.964622077524921906e+00 6.303430469459832430e+00 1.280707052346674146e+00 2.019104875843473756e+00 4.305575380350065373e+00 4.945793905137187529e+00 1.988408286125173507e+00 2.293455693846274124e-01 2.513433855725212052e+00 8.681647771390977653e+00 -1.687469901657667526e+00 6.256259785546549601e+00 8.636997217867589782e+00 4.396804947198760694e+00 2.572513417140324776e+00 8.648022993443156281e+00 2.379276401754236492e+00 6.227577196950993432e+00 8.693828040464765650e+00 4.724697190097972843e+00 6.760034157235573105e+00 1.066930789916987266e+01 6.751334836235388437e+00 3.064200202388838168e+00 1.065283031559287963e+01 1.587979452482730369e-01 6.746260773079424844e+00 5.382174927217635296e-02 2.138142318206156300e+00 3.161721414693905441e+00 3.196877636030826669e-02 2.296375081627288761e+00 1.290651479829816983e+00 7.334117401671067071e+00 2.202458476325860892e-01 4.846810243925316009e+00 7.369469579812458981e+00 6.405402052076007102e+00 1.287971203776863138e+00 7.300420892277516671e+00 4.397404325318165164e+00 4.905880148084273529e+00 7.355438381640193590e+00 1.373824376081544396e-01 2.596201029754265033e+00 3.334941967926838835e+00 -1.868464830637838414e+00 6.139108082010808154e+00 3.368291067479040279e+00 4.283387016802506331e+00 2.550357371606511769e+00 3.360167526534956206e+00 2.236585910017676149e+00 6.263428898148676538e+00 3.306289915728271911e+00
2.214709216881267650e+00 1.289267507911900701e+00 2.039420839013811992e+00 2.684454148439697763e-01 4.918217868426018491e+00 1.954768630514691852e+00 6.307006561639558306e+00 1.278904652596192904e+00 2.020252839276153622e+00 4.310011171558617349e+00 4.948371456162163895e+00 1.983386942802506825e+00 2.145141667016557674e-01 2.499414390420458876e+00 8.686176819858287601e+00 -1.684842082630348958e+00 6.262966257723223684e+00 8.632435595967002939e+00 4.399627815588178947e+00 2.570833165323029856e+00 8.645786842201117040e+00 2.378974082899295350e+00 6.228352191064745469e+00 8.700878238152309763e+00 4.729032133058070464e+00 6.768595997086964466e+00 1.066275325433926469e+01 6.760305063320758201e+00 3.061633467493837912e+00 1.064327640976505940e+01 1.573480790238707128e-01 6.741073575638907300e+00 6.019194340089886047e-02 2.132163251833869122e+00 3.168159236157922276e+00 3.414542980362750973e-02 2.296414389837570180e+00 1.294828452274040531e+00 7.335337218896522238e+00 2.052733772203408080e-01 4.833152108303869099e+00 7.377993555235897283e+00 6.411022879237596506e+00 1.291084227029280163e+00 7.294564887168274225e+00 4.401878992478124530e+00 4.904412329360248179e+00 7.361018683164644472e+00 1.288777978522274992e-01 2.606368797485045796e+00 3.334582250420150995e+00 -1.877635627667695761e+00 6.128853374639020579e+00 3.374596696820056696e+00 4.288054301576091909e+00 2.551160685324198596e+00 3.364839061603235759e+00 2.232301631428997180e+00 6.278427357358560279e+00 3.300098948651549513e+00
2.216343836474052420e+00 1.289067081606154241e+00 2.044255924228391752e+00 2.797687838404905314e-01 4.915528937762648987e+00 1.944903131316932487e+00 6.310602329902173402e+00 1.277242265069098437e+00 2.021350710726480759e+00 4.314416755251470725e+00 4.950989218975041517e+00 1.978346352537462272e+00 1.996905190826598342e-01 2.485184998581443594e+00 8.690655165723368825e+00 -1.682185249287176942e+00 6.269692690597596041e+00 8.627823380033213141e+00 4.402480621288855644e+00 2.569142749855742203e+00 8.643550014215211519e+00 2.378681922257864567e+00 6.229077081598822119e+00 8.707948095155595425e+00 4.733416250098947842e+00 6.777207687563222116e+00 1.065614765123087082e+01 6.769157490401445543e+00 3.058947063947692335e+00 1.063385480255903381e+01 1.558367621971925299e-01 6.735936902636479040e+00 6.648358179256512457e-02 2.126215374207426123e+00 3.174576745382273746e+00 3.638136833693364491e-02 2.296447787151978837e+00 1.299115079236008441e+00 7.336717475900678131e+00 1.902456531705694898e-01 4.819443728444535502e+00 7.386748663912042545e+00 6.416554210438515149e+00 1.294047592927092705e+00 7.288770473121196858e+00 4.406298357541393429e+00 4.903004338546076646e+00 7.366800385616974367e+00 1.204002178045918831e-01 2.616636797716052509e+00 3.334062154608232742e+00 -1.886770842208875809e+00 6.118588946922539407e+00 3.380701479351252647e+00 4.292737613125517271e+00 2.552034385473653355e+00 3.369310374975500899e+00 2.228053370643982234e+00 6.293416046097782157e+00 3.293727130179570306e+00
2.217918908544694201e+00 1.288906956640420320e+00 2.049102408237285733e+00 2.908192975530410895e-01 4.912860735552526670e+00 1.935363700118675423e+00 6.314077488332969779e+00 1.275820750748169807e+00 2.022361784792027439e+00 4.318655481179758837e+00 4.953577535329984016e+00 1.973459357131571057e+00 1.853741461947143176e-01 2.471233298931869715e+00 8.694933112714144485e+00 -1.679586888588734173e+00 6.276219155852310827e+00 8.623331968345723908e+00 4.405285837898775370e+00 2.567532382474958297e+00 8.641404442563196397e+00 2.378424142861165880e+00 6.229732352975798193e+00 8.714776972524411747e+00 4.737712607765469208e+00 6.785589475592976427e+00 1.064970342500400058e+01 6.777540973426743776e+00 3.056232007324028555e+00 1.062495345509945288e+01 1.543298512964529079e-01 6.731050965982539047e+00 7.245567020162349547e-02 2.120505899303127162e+00 3.180752977787250302e+00 3.860151445449198221e-02 2.296454129156068280e+00 1.303381522673548121e+00 7.338238305202088085e+00 1.756995178020821780e-01 4.806162803652174631e+00 7.395464343388749917e+00 6.421788539235015136e+00 1.296712076196200103e+00 7.283191832088232509e+00 4.410478659779518473e+00 4.901717627870792349e+00 7.372597595885062915e+00 1.122381360561859193e-01 2.626653409023433916e+00 3.333394531746910694e+00 -1.895563418295230562e+00 6.108663652083929918e+00 3.386379544399821029e+00 4.297253076706950559e+00 2.552939876010380971e+00 3.373415332346248352e+00 2.223993725281366185e+00 6.307843512454645030e+00 3.287429829242438206e+00
2.219467092228638805e+00 1.288796671301258190e+00 2.054079632623075913e+00 3.018319951803327128e-01 4.910152478510934060e+00 1.925935018778777152e+00 6.317531849017462342e+00 1.274649590019142797e+00 2.023273909833778195e+00 4.322805209800784532e+00 4.956186242250985252e+00 1.968614359223582744e+00 1.712848286180780610e-01 2.457230647047960570e+00 8.699085961156697522e+00 -1.676998965569952427e+00 6.282665677188703945e+00 8.618840584878707745e+00 4.408081819654888989e+00 2.565941995430279565e+00 8.639289128679241259e+00 2.378174071831769876e+00 6.230327795288505222e+00 8.721515511459150716e+00 4.741999563154234210e+00 6.793921220484024914e+00 1.064329928833169348e+01 6.785602587965088972e+00 3.053437780083660957e+00 1.061644901133892738e+01 1.527595910528476153e-01 6.726345849686240719e+00 7.822953885874396607e-02 2.114927037787036390e+00 3.186808355932866377e+00 4.087853096451770502e-02 2.296434455540732777e+00 1.307737730715978985e+00 7.339919962320241353e+00 1.613070506788693570e-01 4.793000712793126006e+00 7.404317006278559710e+00 6.426823230750269289e+00 1.299117454749009193e+00 7.277696912207540336e+00 4.414512378295519568e+00 4.900531409470434419e+00 7.378528278015160424e+00 1.042128618218059743e-01 2.636649606826638070e+00 3.332583846124782312e+00 -1.904171802924939039e+00 6.098878066177745971e+00 3.391753874596681317e+00 4.301712352950992191e+00 2.553906383692359672e+00 3.377221592434271003e+00 2.220041044358662674e+00 6.322000559302108691e+00 3.281059510409212177e+00
2.198220000000000063e+00 1.292640000000000011e+00 1.986969999999999903e+00 1.092499999999999999e-01 4.889120000000000132e+00 1.982299999999999951e+00 6.356230000000000047e+00 1.290669999999999984e+00 1.983249999999999957e+00 4.263279999999999959e+00 4.885550000000000281e+00 1.982059999999999933e+00 1.499199999999999977e-01 2.633360000000000145e+00 8.526960000000000761e+00 -1.940520000000000023e+00 6.223090000000000011e+00 8.525339999999999918e+00 4.302509999999999835e+00 2.621869999999999923e+00 8.521499999999999631e+00 2.211090000000000000e+00 6.227450000000000152e+00 8.530160000000000409e+00 4.229580000000000339e+00 6.688979999999999926e+00 2.726999999999999910e-02 6.327119999999999855e+00 3.087410000000000210e+00 2.682999999999999968e-02 7.431000000000000105e-02 6.685950000000000060e+00 2.121999999999999928e-02 2.166129999999999889e+00 3.090250000000000163e+00 2.026000000000000023e-02 2.215920000000000112e+00 1.324449999999999905e+00 7.223110000000000142e+00 1.237700000000000050e-01 4.918630000000000280e+00 7.216789999999999594e+00 6.368640000000000079e+00 1.322259999999999991e+00 7.220410000000000217e+00 4.285459999999999603e+00 4.921269999999999811e+00 7.213949999999999640e+00 9.753000000000000558e-02 2.543330000000000091e+00 3.284429999999999961e+00 -1.989370000000000083e+00 6.139949999999999797e+00 3.283180000000000209e+00 4.247760000000000424e+00 2.544869999999999965e+00 3.285000000000000142e+00 2.162209999999999965e+00 6.141799999999999926e+00 3.283630000000000049e+00
2.194739999999999913e+00 1.299919999999999964e+00 1.974499999999999922e+00 1.132699999999999957e-01 4.884229999999999627e+00 1.981849999999999890e+00 6.353640000000000398e+00 1.283830000000000027e+00 1.986029999999999962e+00 4.264960000000000306e+00 4.885600000000000165e+00 1.980790000000000051e+00 1.501000000000000112e-01 2.629239999999999799e+00 8.526439999999999131e+00 -1.931300000000000017e+00 6.219380000000000130e+00 8.522500000000000853e+00 4.310060000000000002e+00 2.618320000000000203e+00 8.524789999999999424e+00 2.212029999999999941e+00 6.226160000000000139e+00 8.531629999999999825e+00 4.232160000000000366e+00 6.684280000000000221e+00 4.089000000000000273e-02 6.328549999999999898e+00 3.093010000000000037e+00 2.330000000000000127e-02 7.416000000000000369e-02 6.677069999999999617e+00 4.470000000000000015e-03 2.160400000000000098e+00 3.092659999999999965e+00 2.655000000000000068e-02 2.211930000000000174e+00 1.335409999999999986e+00 7.226340000000000430e+00 1.252999999999999947e-01 4.925239999999999618e+00 7.216129999999999711e+00 6.355889999999999596e+00 1.324799999999999978e+00 7.222489999999999633e+00 4.283339999999999925e+00 4.922559999999999825e+00 7.213189999999999991e+00 1.117100000000000037e-01 2.554710000000000036e+00 3.285909999999999886e+00 -1.988169999999999993e+00 6.144129999999999647e+00 3.286620000000000097e+00 4.224079999999999835e+00 2.539759999999999796e+00 3.278230000000000199e+00 2.164250000000000007e+00 6.140390000000000015e+00 3.296539999999999804e+00
2.191100000000000048e+00 1.307390000000000052e+00 1.961750000000000105e+00 1.173600000000000060e-01 4.879249999999999865e+00 1.981449999999999934e+00 6.350939999999999586e+00 1.276839999999999975e+00 1.988960000000000061e+00 4.266639999999999766e+00 4.885659999999999670e+00 1.979579999999999895e+00 1.503099999999999992e-01 2.624950000000000117e+00 8.525930000000000675e+00 -1.921820000000000084e+00 6.215510000000000090e+00 8.519610000000000127e+00 4.317840000000000344e+00 2.614640000000000075e+00 8.528200000000000003e+00 2.213039999999999896e+00 6.224750000000000227e+00 8.533160000000000522e+00 4.234829999999999650e+00 6.679459999999999731e+00 5.475000000000000006e-02 6.330009999999999692e+00 3.098749999999999893e+00 1.958999999999999977e-02 3.864199999999999857e-01 6.713949999999999640e+00 1.050187999999999988e+01 2.154520000000000213e+00 3.095149999999999846e+00 3.287999999999999950e-02 2.207770000000000010e+00 1.346729999999999983e+00 7.229720000000000368e+00 1.268299999999999983e-01 4.932080000000000020e+00 7.215519999999999712e+00 6.342769999999999797e+00 1.327499999999999902e+00 7.224680000000000213e+00 4.281109999999999971e+00 4.923960000000000115e+00 7.212519999999999598e+00 1.262999999999999956e-01 2.566339999999999844e+00 3.287319999999999798e+00 -1.986869999999999914e+00 6.148390000000000022e+00 3.290029999999999788e+00 4.199880000000000280e+00 2.534499999999999975e+00 3.271160000000000068e+00 2.166399999999999881e+00 6.138910000000000089e+00 3.309680000000000177e+00
2.187440000000000051e+00 1.314699999999999980e+00 1.949259999999999993e+00 1.213499999999999995e-01 4.874410000000000132e+00 1.981109999999999927e+00 6.348239999999999661e+00 1.270010000000000083e+00 1.991929999999999978e+00 4.268259999999999721e+00 4.885729999999999684e+00 1.978490000000000082e+00 1.505299999999999971e-01 2.620680000000000121e+00 8.525449999999999307e+00 -1.912469999999999892e+00 6.211660000000000181e+00 8.516790000000000305e+00 4.325510000000000410e+00 2.611000000000000210e+00 8.531620000000000203e+00 2.214090000000000114e+00 6.223290000000000433e+00 8.534670000000000201e+00 4.237470000000000070e+00 6.674750000000000405e+00 6.822999999999999898e-02 6.331450000000000244e+00 3.104389999999999983e+00 1.587999999999999828e-02 3.862400000000000277e-01 6.704970000000000319e+00 1.048484000000000016e+01 2.148750000000000160e+00 3.097659999999999858e+00 3.892999999999999933e-02 2.203629999999999978e+00 1.357920000000000016e+00 7.233139999999999681e+00 1.283100000000000074e-01 4.938869999999999649e+00 7.214949999999999974e+00 6.329850000000000421e+00 1.330230000000000024e+00 7.226899999999999658e+00 4.278870000000000395e+00 4.925419999999999909e+00 7.211999999999999744e+00 1.406600000000000072e-01 2.577739999999999920e+00 3.288600000000000190e+00 -1.985530000000000017e+00 6.152580000000000382e+00 3.293219999999999814e+00 4.176179999999999559e+00 2.529310000000000169e+00 3.264089999999999936e+00 2.168559999999999821e+00 6.137439999999999785e+00 3.322499999999999787e+00
2.183759999999999923e+00 1.321749999999999980e+00 1.937149999999999928e+00 1.251899999999999957e-01 4.869780000000000442e+00 1.980839999999999934e+00 6.345589999999999620e+00 1.263419999999999987e+00 1.994930000000000092e+00 4.269820000000000171e+00 4.885790000000000077e+00 1.977579999999999893e+00 1.507600000000000051e-01 2.616490000000000204e+00 8.525000000000000355e+00 -1.903350000000000097e+00 6.207869999999999777e+00 8.514060000000000628e+00 4.332989999999999675e+00 2.607450000000000045e+00 8.535019999999999385e+00 2.215190000000000214e+00 6.221770000000000245e+00 8.536129999999999995e+00 4.240079999999999849e+00 6.670219999999999594e+00 8.118000000000000216e-02 6.332840000000000025e+00 3.109830000000000094e+00 1.223999999999999914e-02 3.860500000000000043e-01 6.696200000000000152e+00 1.046823999999999977e+01 2.143130000000000202e+00 3.100179999999999936e+00 4.460999999999999688e-02 2.199539999999999829e+00 1.368849999999999900e+00 7.236559999999999881e+00 1.297300000000000120e-01 4.945479999999999876e+00 7.214430000000000121e+00 6.317269999999999719e+00 1.332940000000000014e+00 7.229110000000000369e+00 4.276650000000000063e+00 4.926929999999999588e+00 7.211630000000000429e+00 1.546200000000000074e-01 2.588740000000000041e+00 3.289750000000000174e+00 -1.984150000000000080e+00 6.156640000000000335e+00 3.296159999999999979e+00 4.153279999999999639e+00 2.524259999999999948e+00 3.257089999999999819e+00 2.170700000000000074e+00 6.135979999999999990e+00 3.334849999999999870e+00
2.179889999999999883e+00 1.328810000000000047e+00 1.924900000000000055e+00 1.290699999999999903e-01 4.865190000000000126e+00 1.980609999999999982e+00 6.342859999999999943e+00 1.256790000000000074e+00 1.998070000000000013e+00 4.271379999999999733e+00 4.885839999999999961e+00 1.976830000000000087e+00 1.509999999999999953e-01 2.612210000000000143e+00 8.524549999999999628e+00 -1.894079999999999986e+00 6.203979999999999606e+00 8.511300000000000310e+00 4.340580000000000105e+00 2.603849999999999998e+00 8.538569999999999993e+00 2.216390000000000082e+00 6.220150000000000290e+00 8.537599999999999412e+00 4.242759999999999643e+00 6.665689999999999671e+00 9.413000000000000533e-02 6.334249999999999936e+00 3.115320000000000089e+00 8.510000000000000203e-03 3.858400000000000163e-01 6.687249999999999694e+00 1.045138999999999996e+01 2.137439999999999785e+00 3.102840000000000042e+00 5.011999999999999789e-02 2.195329999999999782e+00 1.379969999999999919e+00 7.240129999999999733e+00 1.311400000000000066e-01 4.952200000000000379e+00 7.213910000000000267e+00 6.304490000000000371e+00 1.335760000000000058e+00 7.231390000000000207e+00 4.274350000000000094e+00 4.928550000000000431e+00 7.211430000000000007e+00 1.687599999999999933e-01 2.599810000000000176e+00 3.290820000000000078e+00 -1.982660000000000089e+00 6.160759999999999792e+00 3.298929999999999918e+00 4.130200000000000315e+00 2.519130000000000091e+00 3.249859999999999971e+00 2.172930000000000028e+00 6.134490000000000443e+00 3.347269999999999968e+00
2.175720000000000098e+00 1.336000000000000076e+00 1.912230000000000096e+00 1.330699999999999938e-01 4.860560000000000436e+00 1.980420000000000069e+00 6.339999999999999858e+00 1.249970000000000026e+00 2.001459999999999795e+00 4.272979999999999556e+00 4.885860000000000092e+00 1.976250000000000062e+00 1.512400000000000133e-01 2.607759999999999856e+00 8.524089999999999279e+00 -1.884439999999999893e+00 6.199919999999999654e+00 8.508449999999999847e+00 4.348449999999999704e+00 2.600150000000000183e+00 8.542370000000000019e+00 2.217729999999999979e+00 6.218359999999999665e+00 8.539110000000000866e+00 4.245580000000000354e+00 6.661080000000000112e+00 1.073299999999999949e-01 6.335700000000000109e+00 3.120960000000000178e+00 4.619999999999999975e-03 3.855899999999999883e-01 6.677929999999999922e+00 1.043392000000000053e+01 2.131520000000000081e+00 3.105750000000000011e+00 5.551999999999999991e-02 2.190920000000000201e+00 1.391520000000000090e+00 7.243960000000000399e+00 1.325999999999999956e-01 4.959139999999999660e+00 7.213370000000000282e+00 6.291249999999999787e+00 1.338710000000000067e+00 7.233789999999999942e+00 4.271930000000000227e+00 4.930320000000000036e+00 7.211400000000000254e+00 1.833799999999999875e-01 2.611180000000000057e+00 3.291859999999999786e+00 -1.981030000000000069e+00 6.165040000000000298e+00 3.301590000000000025e+00 4.106460000000000221e+00 2.513830000000000009e+00 3.242259999999999920e+00 2.175269999999999815e+00 6.132920000000000371e+00 3.360030000000000072e+00
2.171359999999999957e+00 1.343020000000000103e+00 1.899589999999999890e+00 1.370399999999999952e-01 4.856069999999999887e+00 1.980259999999999909e+00 6.337100000000000399e+00 1.243219999999999992e+00 2.004970000000000141e+00 4.274569999999999759e+00 4.885839999999999961e+00 1.975910000000000055e+00 1.514699999999999935e-01 2.603310000000000013e+00 8.523630000000000706e+00 -1.874789999999999957e+00 6.195829999999999949e+00 8.505599999999999383e+00 4.356309999999999683e+00 2.596480000000000121e+00 8.546290000000000830e+00 2.219180000000000152e+00 6.216479999999999784e+00 8.540580000000000283e+00 4.248440000000000438e+00 6.656589999999999563e+00 1.203000000000000042e-01 6.337150000000000283e+00 3.126529999999999809e+00 7.500000000000000156e-04 3.852999999999999758e-01 6.668560000000000265e+00 1.041651000000000060e+01 2.125609999999999999e+00 3.108839999999999826e+00 6.056999999999999884e-02 2.186449999999999783e+00 1.403080000000000105e+00 7.247910000000000075e+00 1.340500000000000025e-01 4.966020000000000323e+00 7.212799999999999656e+00 6.278039999999999843e+00 1.341690000000000049e+00 7.236209999999999809e+00 4.269470000000000098e+00 4.932179999999999787e+00 7.211570000000000036e+00 1.979400000000000048e-01 2.622409999999999908e+00 3.292829999999999924e+00 -1.979300000000000059e+00 6.169330000000000425e+00 3.304009999999999891e+00 4.082950000000000301e+00 2.508570000000000189e+00 3.234550000000000036e+00 2.177639999999999798e+00 6.131350000000000300e+00 3.372669999999999835e+00
2.166910000000000114e+00 1.349630000000000107e+00 1.887320000000000109e+00 1.408899999999999875e-01 4.851890000000000036e+00 1.980140000000000011e+00 6.334249999999999936e+00 1.236730000000000107e+00 2.008519999999999861e+00 4.276110000000000078e+00 4.885760000000000325e+00 1.975829999999999975e+00 1.516699999999999993e-01 2.598990000000000133e+00 8.523189999999999600e+00 -1.865390000000000104e+00 6.191840000000000011e+00 8.502819999999999823e+00 4.363920000000000243e+00 2.592960000000000154e+00 8.550259999999999749e+00 2.220699999999999896e+00 6.214550000000000018e+00 8.541959999999999553e+00 4.251269999999999882e+00 6.652359999999999829e+00 1.326400000000000079e-01 6.650960000000000427e+00 3.177869999999999973e+00 1.051168999999999976e+01 3.849799999999999889e-01 6.659390000000000143e+00 1.039966000000000079e+01 2.119839999999999947e+00 3.112060000000000048e+00 6.507999999999999896e-02 2.182059999999999889e+00 1.414299999999999891e+00 7.251879999999999882e+00 1.354700000000000071e-01 4.972640000000000171e+00 7.212189999999999657e+00 6.265229999999999855e+00 1.344589999999999952e+00 7.238559999999999661e+00 4.267050000000000232e+00 4.934079999999999799e+00 7.211940000000000239e+00 2.120199999999999863e-01 2.633169999999999789e+00 3.293730000000000047e+00 -1.977519999999999945e+00 6.173510000000000275e+00 3.306119999999999948e+00 4.060349999999999682e+00 2.503490000000000215e+00 3.226960000000000051e+00 2.179990000000000094e+00 6.129800000000000360e+00 3.384840000000000071e+00