-7.210196335000000545e+01
-7.209356606999999428e+01
-7.207153689000000441e+01
-7.203657832999999755e+01
-7.199017363999999475e+01
-7.193116587000000095e+01
-7.185735339999999383e+01
-7.177041257000000485e+01
-7.167427059000000611e+01
-7.156823862000000247e+01
-7.209294183000000089e+01
-7.208787542000000315e+01
-7.206542500999999845e+01
-7.202627180000000351e+01
-7.197212747000000377e+01
-7.190129211999999370e+01
-7.181131596999999545e+01
-7.170511179000000368e+01
-7.158718192999999985e+01
-7.145524299999999585e+01
-7.183069335999999794e+01
-7.182452899000000457e+01
-7.180644352999999569e+01
-7.177724331000000291e+01
-7.173864475999999968e+01
-7.169027377000000456e+01
-7.163051416999999788e+01
-7.156049154000000101e+01
-7.148367817999999829e+01
-7.140049621000000002e+01
-7.202613743999999940e+01
-7.201966871000000481e+01
-7.200553035999999452e+01
-7.198409245999999939e+01
-7.195636888999999314e+01
-7.192196665999999539e+01
-7.187955691000000513e+01
-7.182967791000000091e+01
-7.177480278000000169e+01
-7.171564265000000660e+01
-7.223793723000000000e+01
-7.223450554000000068e+01
-7.221711435000000279e+01
-7.218602907999999729e+01
-7.214280594999999607e+01
-7.208688592000000028e+01
-7.201616054999999506e+01
-7.193160654000000420e+01
-7.183744011999999657e+01
-7.173481657000000666e+01
