-1.635108514584870942e-02 5.256261872199967378e-02 7.107955588380455991e-02 -1.635861369960833062e-02 5.261675028546063809e-02 7.104184521269464592e-02 -1.635014562898619295e-02 5.255561588997518380e-02 7.107851778376031437e-02 -1.635964685111555503e-02 5.260275100825501093e-02 7.104383338665160030e-02 4.451726861534061747e-02 -4.712487750144057214e-02 -1.673603063763420828e-02 4.451088515447185201e-02 -4.709978565251195237e-02 -1.675983506043084159e-02 4.452440734950344203e-02 -4.714294261195528524e-02 -1.672522831118831987e-02 4.451438217716076340e-02 -4.715189051202829662e-02 -1.672403206548494711e-02 2.936240808167653576e-03 -9.075645091654996333e-02 -4.915824021411170641e-02 2.932377683412686585e-03 -9.075944648887201982e-02 -4.915116188001455999e-02 2.931399483977097011e-03 -9.076344594505568464e-02 -4.914915004600072662e-02 2.933301363022494147e-03 -9.075744202672483829e-02 -4.915517796610414242e-02 -3.402911769890990673e-02 3.689328467642759291e-02 3.209513346356699937e-01 -3.404115755617332512e-02 3.690536219579067939e-02 3.209466255632442144e-01 -3.403627863002432058e-02 3.690334744504075726e-02 3.209415131412107214e-01 -3.402511299550625007e-02 3.689826530245025882e-02 3.209502595937773206e-01 2.080967024262146085e-03 4.881714956916088921e-02 -3.261662463226170927e-01 2.088894002962024717e-03 4.881211108967326018e-02 -3.261684318964878093e-01 2.082015364653310580e-03 4.881013431171656036e-02 -3.261622856225004363e-01 2.073892287478950290e-03 4.881119274346715220e-02 -3.261681075929098728e-01
-3.049704365196462263e-02 6.237909231631633827e-02 1.046538900293851881e-01 -6.732263477464980883e-02 5.269712076105541321e-02 1.313497338120403479e-01 -3.643804555649758636e-02 1.244720789185720100e-01 3.566494534849856679e-02 -5.695450343064331622e-02 5.034863912734919428e-02 9.646586730545057831e-02 1.274813070012061067e-01 -2.540612891283619557e-02 -5.742250904417695034e-02 3.146014026689044479e-02 -8.174681686670487446e-02 -4.448936001899123777e-03 3.020821046032518692e-02 -2.463805196842142400e-02 6.597882841189668494e-03 4.273680527121831441e-02 -6.764068065096572047e-02 -7.116532414936389828e-02 -3.347874007999705748e-03 -1.053590154712513299e-01 -2.555909387195066593e-02 -7.346775743360821342e-02 -1.120754025352836969e-01 4.062423583565147323e-02 -4.533915118171468611e-03 -3.624855402659440951e-02 -9.686364553165591196e-02 4.492666318894254079e-02 -1.218508969383367141e-01 -3.515006019952400529e-02 -3.501383116182583966e-02 4.769063494118547936e-02 3.240173346972006208e-01 3.746572104117993490e-02 8.804950875850062197e-02 3.149549590897898210e-01 -8.073126226982638154e-02 -3.913419460765905911e-02 3.242296450815846942e-01 -7.674716470195754037e-02 6.061426561187475970e-02 3.104645124849919058e-01 5.554342186446274005e-02 1.862304487891302401e-02 -3.296417098002379920e-01 6.840318445248329271e-02 8.397177672138764204e-02 -3.876421198915475652e-01 -1.891756279886844597e-02 5.926166276381832076e-02 -3.709400082684777278e-01 4.247451779659633386e-02 -3.164483739164303949e-02 -3.094393409416506535e-01
-4.370054518394490134e-02 7.248508265137744433e-02 1.379363613107471298e-01 -1.110149904106393914e-01 4.555703801317393525e-02 1.892758417696032147e-01 -5.543703241579885088e-02 2.009699512367823793e-01 -2.838683288953711050e-03 -9.690293866875407391e-02 4.721179688826664805e-02 1.189979448979718579e-01 2.162603359278001958e-01 -5.541439916424309269e-03 -1.023051634525241338e-01 1.868882611494251597e-02 -1.158363646433548111e-01 8.703468656643953416e-03 1.731417885317184865e-02 -2.286441406927027832e-03 2.884840268252414699e-02 4.263322693358979898e-02 -8.788762461763649503e-02 -1.222426420660910479e-01 -9.602095710394180708e-03 -1.196693143224552558e-01 -1.716813490696005723e-03 -1.567491241640552591e-01 -1.305853789655920805e-01 1.392264927957833631e-01 -1.309424943241239980e-02 2.166215407875600810e-02 -1.478486541618489192e-01 8.721916830730409853e-02 -1.519160705213615514e-01 -1.983758410519992701e-02 -3.602106742673465145e-02 5.917821527758710537e-02 3.261983278681823695e-01 1.082717479587759213e-01 1.385275396750820232e-01 3.055630751490105990e-01 -1.308437153462156111e-01 -1.172376110305561603e-01 3.235520717291832105e-01 -1.199010105804293874e-01 8.447440842154563256e-02 2.988092408086163720e-01 1.085312209396964295e-01 -1.111324276379317168e-02 -3.315113194713142919e-01 1.327299219149076226e-01 1.221969164064428404e-01 -4.455220690439693487e-01 -4.073752658905368390e-02 6.896961400313394996e-02 -4.152646145840804270e-01 8.145114133635483755e-02 -1.177012927617740040e-01 -2.875752665272386377e-01
-5.603330433168340896e-02 8.262990430749750370e-02 1.688454080980787420e-01 -1.489686475491496243e-01 3.336505084506719704e-02 2.456291168153386939e-01 -7.329043670403427579e-02 2.806226552909352190e-01 -4.390802085265188559e-02 -1.363544851003671565e-01 4.321067643402974612e-02 1.387964040749159467e-01 3.113166093212025309e-01 1.114108705434595746e-02 -1.503110976807675303e-01 6.356029751463483472e-03 -1.491844134851413595e-01 2.274538524388837815e-02 5.714964115054768125e-03 1.895101569118257459e-02 4.983867003077216418e-02 4.385613576665038649e-02 -1.075674599312163721e-01 -1.701026492255875711e-01 -1.569794257867884735e-02 -1.331747036087694569e-01 2.180194253989571271e-02 -2.443224820126855268e-01 -1.450402577532441672e-01 2.439827177015483628e-01 -2.255593714430989202e-02 8.104890103246165101e-02 -2.001266873032484239e-01 1.282060265027307189e-01 -1.798972640389989441e-01 -4.004387177060714058e-03 -3.700003300698215952e-02 7.085655252338189658e-02 3.271498847607674509e-01 1.762311162615750049e-01 1.868187614774317051e-01 2.925418425580137982e-01 -1.827578064878174757e-01 -1.942970192310239652e-01 3.186102816792021897e-01 -1.618007070325521712e-01 1.075393437273997888e-01 2.860134230966203672e-01 1.590024583458694851e-01 -3.944339342496462619e-02 -3.313871841231846305e-01 1.929572102244633824e-01 1.621510374008815480e-01 -4.972410197944354682e-01 -6.265268163880165220e-02 7.764482801391220379e-02 -4.569510824564889662e-01 1.174878749016760454e-01 -2.068303347890953214e-01 -2.607716565869819814e-01
-6.737797405766927927e-02 9.239914649611045971e-02 1.968563205936613159e-01 -1.818313370441458354e-01 1.727500422078424858e-02 2.994522942889403239e-01 -9.000269200535662706e-02 3.620432224454766534e-01 -8.671121800023350035e-02 -1.749356348309448472e-01 3.790734809484581913e-02 1.558060139812020295e-01 4.136310562782182232e-01 2.633047322466938386e-02 -2.016015026479973382e-01 -5.627109727019569477e-03 -1.817040915555819258e-01 3.793802637303066855e-02 -4.596004656455355240e-03 3.887940719026441311e-02 6.954533792233276446e-02 4.617197346079257581e-02 -1.260361948587023495e-01 -2.141945297323791797e-01 -2.153297407761907076e-02 -1.457958738660348752e-01 4.462905339587460579e-02 -3.342174051000450508e-01 -1.551063323811184003e-01 3.525562933737964588e-01 -3.264361500442226893e-02 1.403786868601715754e-01 -2.526582983672948091e-01 1.672228106892533206e-01 -2.053538778434970680e-01 1.195199120750238021e-02 -3.784286314738649626e-02 8.241177175878289241e-02 3.269889057649913999e-01 2.402769045036181328e-01 2.321841368714416542e-01 2.766888373722778405e-01 -2.355080462531700947e-01 -2.688907323796904669e-01 3.098408991229665843e-01 -2.017360962590558637e-01 1.293800408710205907e-01 2.725506504126710139e-01 2.062422504506137011e-01 -6.602887009169854104e-02 -3.295239643174376898e-01 2.482910421599988371e-01 2.027937395472204363e-01 -5.424842007483312578e-01 -8.420672087628994218e-02 8.522787103790728513e-02 -4.956083971550607203e-01 1.500425237545892632e-01 -2.974167987120924783e-01 -2.299399152631055598e-01
-7.783799670194546660e-02 1.021668482403471773e-01 2.234636383644144353e-01 -2.100338475388480175e-01 -3.730389064869478900e-03 3.510142866757030577e-01 -1.058926557089087672e-01 4.477437579026452563e-01 -1.326464275664138437e-01 -2.133681667283447436e-01 3.159637063171025217e-02 1.702012578064241999e-01 5.238803060202038564e-01 3.912339779633111636e-02 -2.580417974670918824e-01 -1.753229270565405049e-02 -2.139034725887206112e-01 5.451709945484742303e-02 -1.382715207543974006e-02 5.804161992168668793e-02 8.850442040570134783e-02 4.953810784811750467e-02 -1.443174573264511540e-01 -2.558522196320685560e-01 -2.732596158549988052e-02 -1.578892832238511235e-01 6.746356247254002569e-02 -4.292982291764825820e-01 -1.609856104738214555e-01 4.686429460733483876e-01 -4.374722631567416059e-02 2.015842050470046665e-01 -3.069295540400962530e-01 2.055472366466310485e-01 -2.292631145422312500e-01 2.852343151392532777e-02 -3.870717736302084488e-02 9.420791521055241202e-02 3.256437089109338601e-01 3.026306721124232824e-01 2.762372235651405217e-01 2.576926431251103655e-01 -2.906451808953527394e-01 -3.434684009795537785e-01 2.968754995749163239e-01 -2.410668409010515711e-01 1.507005215212365579e-01 2.577711090564929752e-01 2.519907370438789762e-01 -9.177943098653029708e-02 -3.258457763143038921e-01 3.010223266659187158e-01 2.448984541863323816e-01 -5.829449571544313979e-01 -1.060588239736027782e-01 9.197702305318264382e-02 -5.323578390393163273e-01 1.805067751286995037e-01 -3.924236081820732247e-01 -1.941404699051688110e-01
-8.785274703108149341e-02 1.121633757390821523e-01 2.486895020721749117e-01 -2.333390251501655521e-01 -2.977743049210578377e-02 4.020040238321729298e-01 -1.213562451507801399e-01 5.401733217364002027e-01 -1.829142345012196857e-01 -2.527250930575249965e-01 2.397555921610601895e-02 1.824368475317975080e-01 6.441681081509985640e-01 4.959490728022292877e-02 -3.211559488987081323e-01 -2.955302632261941689e-02 -2.469573763732407223e-01 7.284698403516856602e-02 -2.235337127639047683e-02 7.684820395105257385e-02 1.073572510735873453e-01 5.416884625818114279e-02 -1.630713558765063409e-01 -2.959552347444717180e-01 -3.331804766618197411e-02 -1.697613052906263298e-01 9.102112854572169676e-02 -5.332111438659548064e-01 -1.624258674567410909e-01 5.963916565245402923e-01 -5.622358721813731225e-02 2.667476970427467009e-01 -3.647339441520566217e-01 2.443912985262670645e-01 -2.522364075183659016e-01 4.603211287648968641e-02 -3.932810118071008998e-02 1.066929297630240941e-01 3.229476024715189908e-01 3.652423035989312283e-01 3.203645430347617507e-01 2.350411438448052337e-01 -3.503181217408306569e-01 -4.206173843559797287e-01 2.789202331913384625e-01 -2.810706568006601791e-01 1.721954902792246223e-01 2.413912665241701727e-01 2.976073039207253190e-01 -1.174501195279854387e-01 -3.201160263481023227e-01 3.526446432992631497e-01 2.898348502496414514e-01 -6.198286818856508784e-01 -1.289338403975038294e-01 9.826273819378299190e-02 -5.682409612945999999e-01 2.096665114472182345e-01 -4.952119641988546039e-01 -1.521804916599557855e-01
-9.703493962767081871e-02 1.220484817544901651e-01 2.725816484631314318e-01 -2.509599513054356912e-01 -6.000839266145338580e-02 4.511382022462321340e-01 -1.356650181452237203e-01 6.372129624939337766e-01 -2.362844637198150965e-01 -2.919522389782607252e-01 1.552761994351326523e-02 1.918828877296523960e-01 7.744716586846119855e-01 5.806184368426949710e-02 -3.891312381694506661e-01 -4.162658160442601202e-02 -2.794540613998188761e-01 9.205661410282425794e-02 -2.962763964710976583e-02 9.499626276665165681e-02 1.252099569136188306e-01 5.979286547575994593e-02 -1.815250072122358560e-01 -3.325502803829751830e-01 -3.941608993513125159e-02 -1.813742467963976590e-01 1.147926959099100225e-01 -6.424970118524108154e-01 -1.585868289338711046e-01 7.318852857240829568e-01 -6.973593346209180921e-02 3.335856968178159132e-01 -4.241380089189636937e-01 2.825592447952169350e-01 -2.736653540169046162e-01 6.370838774885917433e-02 -3.981143229731599897e-02 1.190736492469369190e-01 3.187878909674168870e-01 4.261037639605017024e-01 3.634416331596787564e-01 2.093583992366167545e-01 -4.125202857541018786e-01 -4.973362569999006388e-01 2.566520484794208579e-01 -3.204265026031863361e-01 1.930770221875154069e-01 2.236864787189694337e-01 3.417382946550140410e-01 -1.426134197225465416e-01 -3.123641971086373315e-01 4.019034039914294865e-01 3.363559189865181209e-01 -6.519178759167728598e-01 -1.521616778055188135e-01 1.036912779436531540e-01 -6.019690175140425259e-01 2.364948132511504320e-01 -6.030197087568004433e-01 -1.051020157616735784e-01
-1.051464921012758708e-01 1.313454985118766294e-01 2.940204425026650137e-01 -2.628443380240968463e-01 -9.272427629956001005e-02 4.970405758078481062e-01 -1.486666698535257791e-01 7.350882334480746128e-01 -2.908373492810920058e-01 -3.300246377908928608e-01 6.048284405094537033e-03 1.988066268230137823e-01 9.091101737549528439e-01 6.418667413473243266e-02 -4.582719766871646283e-01 -5.306915460338886698e-02 -3.106755906546276869e-01 1.118578218770589910e-01 -3.586052713895519772e-02 1.114639303748143906e-01 1.420645819784607244e-01 6.572789548253028802e-02 -1.992195447926291552e-01 -3.648381750284024339e-01 -4.536104026188183397e-02 -1.919128599249810274e-01 1.376553829814677332e-01 -7.528367532562791897e-01 -1.499698225287202369e-01 8.698763251424012077e-01 -8.390030313694096797e-02 3.995283064595564482e-01 -4.827149092374174444e-01 3.185769671006166148e-01 -2.926902719103269823e-01 8.089031721430881006e-02 -4.009221698122646116e-02 1.312148807010103391e-01 3.135169092746830644e-01 4.832972752872497502e-01 4.037919791440581219e-01 1.819222894860466067e-01 -4.749043790065908821e-01 -5.711884431825487995e-01 2.307340715717133839e-01 -3.577198962353194678e-01 2.127192111208392467e-01 2.055536196458727649e-01 3.827275625763673084e-01 -1.661372445056879532e-01 -3.029985276885188150e-01 4.471753482147892145e-01 3.824153400842332795e-01 -6.782810712700467759e-01 -1.747034923027084297e-01 1.083423114305375884e-01 -6.324331537578701257e-01 2.601220076637049683e-01 -7.117709231361299960e-01 -5.504649887090731775e-02
-1.125144825088847389e-01 1.402452527164964602e-01 3.134175759625549840e-01 -2.712846658513328735e-01 -1.272552146485571301e-01 5.412930839727037036e-01 -1.605818343055092634e-01 8.348696051715918109e-01 -3.470965546036268723e-01 -3.675108918825021331e-01 -4.089589024556646024e-03 2.033233945352529159e-01 1.046750309337843410e+00 6.628613325778753840e-02 -5.304537777486934003e-01 -6.375862886304854704e-02 -3.411002617950992799e-01 1.325118236000803196e-01 -4.094300015416741517e-02 1.267714893172572632e-01 1.579750590715521263e-01 7.193141586757989536e-02 -2.164147736426690893e-01 -3.936498382693401354e-01 -5.144980252385646796e-02 -2.019258437309108256e-01 1.601674221769707196e-01 -8.654761621566727792e-01 -1.363638636647123981e-01 1.011575704009338494e+00 -9.877803173671106940e-02 4.655039843650111142e-01 -5.413542163320803624e-01 3.533376571963885993e-01 -3.099614619848705677e-01 9.773888379334561005e-02 -4.004454185403242411e-02 1.430177539605032300e-01 3.067865877002995956e-01 5.378836429788350637e-01 4.423598115964456068e-01 1.522919671853201762e-01 -5.384783431780871821e-01 -6.431937333134440937e-01 2.012977372935342013e-01 -3.937120355242523795e-01 2.313792664730464910e-01 1.865607920966912137e-01 4.216803289441018454e-01 -1.889512273607676096e-01 -2.917893279995922851e-01 4.898280632646733745e-01 4.287838884784312965e-01 -6.998803485037249361e-01 -1.970897498045550977e-01 1.122920312541339782e-01 -6.601727646826992535e-01 2.814026999588171152e-01 -8.228554098218042734e-01 -1.556885313266075229e-03
-1.437890000000000001e-01 7.827099999999999336e-02 1.687120000000000009e-01 -1.338209999999999955e-01 4.895000000000000046e-02 1.958989999999999898e-01 -1.339110000000000023e-01 7.236599999999999977e-02 2.014380000000000059e-01 -1.275779999999999970e-01 8.129200000000000315e-02 1.934829999999999883e-01 8.890800000000000092e-02 -2.240119999999999889e-01 9.539000000000000257e-02 7.190499999999999670e-02 -2.088369999999999949e-01 9.809600000000000264e-02 9.489999999999999825e-02 -1.437740000000000129e-01 8.274499999999999911e-02 1.277000000000000079e-01 -2.378470000000000029e-01 6.606099999999999473e-02 1.248299999999999930e-02 -5.361999999999999579e-03 -2.172209999999999974e-01 -9.813000000000000542e-03 2.731300000000000047e-02 -2.083569999999999867e-01 -7.061999999999999701e-03 1.266300000000000064e-02 -1.938179999999999903e-01 1.198500000000000086e-02 3.327000000000000096e-03 -1.823230000000000128e-01 -1.064009999999999956e-01 1.711930000000000118e-01 1.209800000000000042e-01 -7.591900000000000037e-02 1.917740000000000000e-01 1.475990000000000080e-01 -7.327599999999999392e-02 1.925099999999999867e-01 1.418909999999999894e-01 -1.131149999999999933e-01 1.616279999999999939e-01 1.995169999999999999e-01 1.245590000000000031e-01 -4.041100000000000247e-02 -2.230949999999999878e-01 1.071200000000000069e-01 -6.396100000000000396e-02 -2.293189999999999951e-01 1.548609999999999987e-01 -5.312100000000000155e-02 -2.322470000000000090e-01 1.250459999999999905e-01 -6.278999999999999859e-02 -2.245929999999999871e-01
-1.828100000000000003e-01 -4.449199999999999683e-02 2.220229999999999981e-01 -1.408629999999999882e-01 1.365319999999999867e-01 1.874750000000000028e-01 -1.080200000000000049e-01 1.405279999999999863e-01 2.192350000000000132e-01 -1.190959999999999935e-01 5.407300000000000301e-02 2.728340000000000209e-01 7.118099999999999428e-02 -1.638509999999999966e-01 7.735999999999999821e-02 2.050000000000000086e-02 -1.639380000000000004e-01 9.856600000000000084e-02 3.747099999999999737e-02 -8.599999999999999312e-02 1.108800000000000063e-01 1.483309999999999906e-01 -2.381939999999999891e-01 3.550500000000000184e-02 2.133600000000000080e-02 4.191000000000000281e-02 -3.105979999999999852e-01 -1.564099999999999865e-02 -2.533399999999999888e-02 -1.524939999999999907e-01 -1.230299999999999970e-02 1.871300000000000047e-02 -8.943800000000000361e-02 3.280500000000000083e-02 4.107899999999999746e-02 -2.839929999999999954e-01 -9.705600000000000338e-02 1.027590000000000031e-01 1.356159999999999866e-01 -7.406500000000000583e-02 1.178899999999999948e-01 1.234500000000000042e-01 -1.446500000000000043e-02 1.652220000000000077e-01 1.237550000000000039e-01 -9.900799999999999879e-02 1.600409999999999888e-01 2.359600000000000031e-01 1.947899999999999979e-02 -1.201649999999999940e-01 -2.266990000000000116e-01 1.190260000000000068e-01 -6.093500000000000305e-02 -2.873330000000000051e-01 2.832790000000000030e-01 -2.370500000000000038e-02 -2.160350000000000048e-01 1.053820000000000034e-01 -5.105200000000000016e-02 -2.767870000000000053e-01
-2.249120000000000008e-01 -1.749570000000000014e-01 2.782510000000000261e-01 -1.482690000000000119e-01 2.272520000000000095e-01 1.767970000000000097e-01 -8.420300000000000007e-02 2.047589999999999966e-01 2.347430000000000072e-01 -1.104640000000000066e-01 2.260300000000000156e-02 3.563509999999999733e-01 5.156299999999999772e-02 -1.021460000000000007e-01 6.123100000000000070e-02 -3.209300000000000347e-02 -1.180869999999999975e-01 9.763399999999999856e-02 -2.371099999999999944e-02 -2.545000000000000040e-02 1.407049999999999967e-01 1.710909999999999931e-01 -2.379840000000000011e-01 1.956999999999999972e-03 2.758599999999999941e-02 9.406699999999999784e-02 -4.056969999999999743e-01 -2.169000000000000095e-02 -7.681799999999999740e-02 -9.837400000000000311e-02 -1.967100000000000098e-02 2.743599999999999858e-02 1.947099999999999873e-02 5.220999999999999946e-02 8.489099999999999424e-02 -3.913420000000000232e-01 -8.505000000000000060e-02 3.282600000000000101e-02 1.486439999999999984e-01 -7.067299999999999971e-02 4.217699999999999921e-02 9.554600000000000593e-02 4.857399999999999912e-02 1.343830000000000024e-01 1.025120000000000059e-01 -8.432599999999999818e-02 1.582050000000000123e-01 2.725389999999999757e-01 -8.286200000000000510e-02 -2.019150000000000111e-01 -2.241440000000000099e-01 1.301829999999999932e-01 -5.961000000000000326e-02 -3.446449999999999791e-01 4.174220000000000153e-01 1.018499999999999961e-02 -1.944440000000000057e-01 8.616000000000000048e-02 -3.903199999999999725e-02 -3.288209999999999744e-01
-2.698329999999999895e-01 -3.073969999999999758e-01 3.314010000000000011e-01 -1.560999999999999888e-01 3.171169999999999822e-01 1.640719999999999956e-01 -6.407599999999999407e-02 2.628679999999999906e-01 2.478390000000000037e-01 -1.022730000000000028e-01 -1.221799999999999969e-02 4.408090000000000064e-01 3.067999999999999894e-02 -4.282699999999999702e-02 4.775499999999999884e-02 -8.415300000000000558e-02 -7.383900000000000186e-02 9.586000000000000076e-02 -8.575699999999999990e-02 3.501499999999999752e-02 1.714700000000000113e-01 1.959660000000000013e-01 -2.378909999999999914e-01 -3.333799999999999958e-02 3.112799999999999942e-02 1.492110000000000103e-01 -4.988230000000000164e-01 -2.764700000000000144e-02 -1.250650000000000095e-01 -4.762999999999999873e-02 -2.908099999999999921e-02 3.859599999999999836e-02 1.293310000000000015e-01 6.957299999999999596e-02 1.331390000000000073e-01 -4.999649999999999928e-01 -7.047100000000000586e-02 -3.614900000000000058e-02 1.584679999999999978e-01 -6.574099999999999389e-02 -3.263900000000000134e-02 6.423199999999999743e-02 1.140570000000000056e-01 1.009300000000000058e-01 7.809399999999999675e-02 -6.923899999999999499e-02 1.558869999999999978e-01 3.068250000000000144e-01 -1.788730000000000042e-01 -2.827509999999999746e-01 -2.146929999999999950e-01 1.400240000000000096e-01 -6.049100000000000310e-02 -3.977809999999999957e-01 5.521859999999999546e-01 4.691399999999999737e-02 -1.671449999999999880e-01 6.811499999999999500e-02 -2.719200000000000089e-02 -3.780350000000000099e-01
-3.166760000000000130e-01 -4.409279999999999866e-01 3.822019999999999862e-01 -1.640929999999999889e-01 4.058439999999999825e-01 1.498130000000000017e-01 -4.610899999999999721e-02 3.148170000000000135e-01 2.585830000000000073e-01 -9.456199999999999328e-02 -4.902200000000000307e-02 5.249759999999999982e-01 8.536999999999999450e-03 1.486200000000000021e-02 3.655800000000000022e-02 -1.363620000000000110e-01 -3.071899999999999978e-02 9.336999999999999467e-02 -1.492749999999999910e-01 9.566600000000000104e-02 2.028480000000000005e-01 2.218870000000000009e-01 -2.374610000000000054e-01 -7.006300000000000028e-02 3.220200000000000146e-02 2.059110000000000107e-01 -5.886599999999999611e-01 -3.343900000000000344e-02 -1.697240000000000137e-01 -8.149999999999999693e-04 -4.008699999999999763e-02 5.205200000000000105e-02 2.386449999999999960e-01 8.504799999999999860e-02 1.844540000000000068e-01 -6.075390000000000512e-01 -5.344100000000000239e-02 -1.030490000000000017e-01 1.654950000000000032e-01 -5.939300000000000135e-02 -1.051760000000000056e-01 3.061099999999999932e-02 1.809620000000000117e-01 6.537600000000000355e-02 5.140100000000000224e-02 -5.413599999999999662e-02 1.533249999999999891e-01 3.388559999999999905e-01 -2.672709999999999808e-01 -3.613129999999999953e-01 -1.995830000000000104e-01 1.486870000000000136e-01 -6.324399999999999467e-02 -4.465169999999999972e-01 6.853510000000000435e-01 8.600199999999999512e-02 -1.351340000000000041e-01 5.146499999999999686e-02 -1.586900000000000116e-02 -4.241750000000000242e-01
-3.666650000000000187e-01 -5.795670000000000543e-01 4.298049999999999926e-01 -1.728889999999999871e-01 4.962039999999999784e-01 1.334029999999999938e-01 -2.977799999999999891e-02 3.627349999999999741e-01 2.674420000000000130e-01 -8.710900000000000587e-02 -8.903500000000000303e-02 6.111710000000000198e-01 -1.567899999999999849e-02 7.300600000000000145e-02 2.778299999999999867e-02 -1.909500000000000086e-01 1.275699999999999924e-02 9.031799999999999551e-02 -2.167209999999999970e-01 1.587510000000000032e-01 2.361149999999999916e-01 2.499159999999999993e-01 -2.366189999999999960e-01 -1.093739999999999990e-01 3.125499999999999806e-02 2.662869999999999959e-01 -6.788750000000000062e-01 -3.925000000000000017e-02 -2.125279999999999947e-01 4.387499999999999734e-02 -5.305300000000000293e-02 6.827099999999999835e-02 3.512080000000000202e-01 9.901100000000000179e-02 2.408510000000000095e-01 -7.184319999999999595e-01 -3.338300000000000295e-02 -1.706930000000000114e-01 1.697279999999999900e-01 -5.131000000000000144e-02 -1.784050000000000080e-01 -7.024999999999999994e-03 2.517789999999999750e-01 2.637000000000000108e-02 2.093599999999999975e-02 -3.834400000000000308e-02 1.503430000000000044e-01 3.696889999999999898e-01 -3.523319999999999785e-01 -4.408759999999999901e-01 -1.784729999999999928e-01 1.565950000000000120e-01 -6.777700000000000391e-02 -4.927480000000000193e-01 8.223310000000000342e-01 1.282369999999999899e-01 -9.725300000000000611e-02 3.556700000000000139e-02 -4.581000000000000003e-03 -4.689050000000000162e-01
-4.209600000000000009e-01 -7.269879999999999676e-01 4.751929999999999765e-01 -1.827239999999999975e-01 5.900870000000000282e-01 1.143959999999999977e-01 -1.494700000000000022e-02 4.070489999999999942e-01 2.749510000000000010e-01 -7.977299999999999669e-02 -1.333080000000000098e-01 7.011600000000000055e-01 -4.304000000000000187e-02 1.325349999999999862e-01 2.149099999999999969e-02 -2.484729999999999994e-01 5.662500000000000172e-02 8.657800000000000218e-02 -2.897750000000000048e-01 2.257909999999999917e-01 2.723300000000000165e-01 2.809619999999999895e-01 -2.353639999999999899e-01 -1.518670000000000020e-01 2.826700000000000046e-02 3.315620000000000234e-01 -7.715859999999999941e-01 -4.522500000000000131e-02 -2.544190000000000063e-01 8.744499999999999496e-02 -6.833500000000000685e-02 8.780300000000000604e-02 4.701779999999999848e-01 1.120049999999999935e-01 3.037020000000000275e-01 -8.348910000000000498e-01 -9.384999999999999246e-03 -2.408949999999999980e-01 1.708669999999999911e-01 -4.114799999999999708e-02 -2.541019999999999945e-01 -4.979599999999999999e-02 3.287519999999999887e-01 -1.724099999999999938e-02 -1.444699999999999977e-02 -2.130999999999999908e-02 1.468129999999999991e-01 3.997749999999999915e-01 -4.362869999999999804e-01 -5.233900000000000219e-01 -1.508279999999999899e-01 1.639529999999999876e-01 -7.446300000000000141e-02 -5.371920000000000028e-01 9.670980000000000132e-01 1.746290000000000064e-01 -5.216799999999999909e-02 2.009800000000000128e-02 7.058000000000000038e-03 -5.130179999999999740e-01
-4.778009999999999757e-01 -8.778989999999999849e-01 5.187009999999999676e-01 -1.929829999999999879e-01 6.835459999999999869e-01 9.368500000000000438e-02 -2.122999999999999887e-03 4.462160000000000015e-01 2.810779999999999945e-01 -7.290199999999999458e-02 -1.794679999999999886e-01 7.913289999999999491e-01 -7.264600000000000224e-02 1.912290000000000101e-01 1.789999999999999925e-02 -3.071999999999999731e-01 9.958200000000000385e-02 8.241999999999999327e-02 -3.656340000000000146e-01 2.944379999999999775e-01 3.105419999999999847e-01 3.136140000000000039e-01 -2.338290000000000091e-01 -1.960490000000000010e-01 2.339799999999999866e-02 3.989530000000000021e-01 -8.629989999999999606e-01 -5.112499999999999684e-02 -2.938029999999999808e-01 1.280830000000000024e-01 -8.528499999999999970e-02 1.100809999999999983e-01 5.909710000000000241e-01 1.235990000000000005e-01 3.701869999999999883e-01 -9.519170000000000131e-01 1.780999999999999944e-02 -3.107480000000000242e-01 1.686719999999999886e-01 -2.924099999999999963e-02 -3.292180000000000106e-01 -9.609099999999999586e-02 4.090759999999999952e-01 -6.377199999999999536e-02 -5.357800000000000062e-02 -3.631999999999999812e-03 1.428590000000000138e-01 4.278640000000000221e-01 -5.152949999999999475e-01 -6.054659999999999487e-01 -1.179020000000000068e-01 1.704809999999999937e-01 -8.298400000000000221e-02 -5.780910000000000215e-01 1.113245999999999958e+00 2.230880000000000085e-01 -1.546000000000000065e-03 5.710999999999999931e-03 1.838599999999999957e-02 -5.550359999999999738e-01
-5.358899999999999775e-01 -1.026421000000000028e+00 5.578980000000000050e-01 -2.040549999999999864e-01 7.740320000000000533e-01 7.195500000000000507e-02 8.498000000000000345e-03 4.807640000000000247e-01 2.853720000000000145e-01 -6.653599999999999792e-02 -2.256380000000000052e-01 8.781970000000000054e-01 -1.033759999999999957e-01 2.475630000000000053e-01 1.714800000000000005e-02 -3.665869999999999962e-01 1.406340000000000090e-01 7.827299999999999536e-02 -4.420740000000000225e-01 3.625010000000000177e-01 3.494709999999999761e-01 3.468370000000000064e-01 -2.320389999999999953e-01 -2.403460000000000041e-01 1.720800000000000107e-02 4.659630000000000161e-01 -9.497480000000000366e-01 -5.680600000000000233e-02 -3.295469999999999788e-01 1.649190000000000100e-01 -1.031429999999999986e-01 1.338630000000000098e-01 7.102330000000000032e-01 1.333799999999999986e-01 4.381760000000000099e-01 -1.065633000000000052e+00 4.716999999999999665e-02 -3.778349999999999764e-01 1.635439999999999949e-01 -1.576500000000000123e-02 -4.015000000000000235e-01 -1.445790000000000131e-01 4.899149999999999894e-01 -1.117049999999999987e-01 -9.523900000000000421e-02 1.419300000000000075e-02 1.387039999999999940e-01 4.532840000000000202e-01 -5.878459999999999797e-01 -6.845499999999999918e-01 -8.114200000000000579e-02 1.762180000000000135e-01 -9.296100000000000196e-02 -6.143189999999999484e-01 1.257004000000000010e+00 2.720529999999999893e-01 5.256500000000000061e-02 -7.314000000000000189e-03 2.923200000000000104e-02 -5.933500000000000441e-01