-9.174052934177563401e+00 -3.202321891572006418e-01 -2.368575008938187884e-02 -3.202321891572007528e-01 -1.048885883101374006e+01 9.733802054422948657e-01 -2.368575008938193435e-02 9.733802054422947547e-01 -8.254854707110512280e+00
-9.288161349155451774e+00 -2.090804900358355367e-01 1.530536923950344130e-01 -2.090804900358355367e-01 -1.056838256989161984e+01 9.110975446133082745e-01 1.530536923950344130e-01 9.110975446133081634e-01 -8.290646331937299607e+00
-9.274008185073157051e+00 -1.055021173868594397e-01 3.206613871979498986e-01 -1.055021173868594536e-01 -1.051891924256621280e+01 8.517843706516494695e-01 3.206613871979500097e-01 8.517843706516494695e-01 -8.178319474453807914e+00
-9.307225736837850150e+00 -1.142167278236475361e-02 4.730154203715840611e-01 -1.142167278236477096e-02 -1.051008345320431836e+01 7.965052627958202347e-01 4.730154203715840611e-01 7.965052627958202347e-01 -8.097933045869941893e+00
-9.263369083543068427e+00 7.502751715911830377e-02 6.048016994973617333e-01 7.502751715911831765e-02 -1.041707234013815153e+01 7.446188541315733600e-01 6.048016994973618443e-01 7.446188541315733600e-01 -7.938126455737375409e+00
-9.123210567889007194e+00 1.524975801541849363e-01 7.235800213284218074e-01 1.524975801541849640e-01 -1.022044400927599561e+01 6.958943665325723060e-01 7.235800213284216964e-01 6.958943665325721950e-01 -7.659334648016707270e+00
-9.003694697137010650e+00 2.251897464797872339e-01 8.346902265463058690e-01 2.251897464797872617e-01 -1.003331248114259111e+01 6.504048040198581182e-01 8.346902265463058690e-01 6.504048040198581182e-01 -7.376112116760697113e+00
-8.847689336135150739e+00 2.884241834463571186e-01 9.340420292343892816e-01 2.884241834463571741e-01 -9.799815519655870943e+00 6.096222637353755358e-01 9.340420292343892816e-01 6.096222637353756468e-01 -7.035866865236993561e+00
-8.681033585688210152e+00 3.428141034551921984e-01 1.016383300376783705e+00 3.428141034551922539e-01 -9.548350034051200197e+00 5.734180387823402114e-01 1.016383300376783927e+00 5.734180387823402114e-01 -6.671374103688825663e+00
-8.472252119251097113e+00 3.882931406524843809e-01 1.086678379923648130e+00 3.882931406524844364e-01 -9.249179816979799185e+00 5.425999719161542778e-01 1.086678379923647908e+00 5.425999719161542778e-01 -6.248558963066707328e+00
-1.273617220561953900e+01 1.048430251741580888e+00 1.046621889707058717e+00 1.048430251741580888e+00 -5.858488896942552593e+00 -8.394879442170076755e-01 1.046621889707058717e+00 -8.394879442170076755e-01 -4.469611936710401245e+00
-1.278896604667460402e+01 1.018810477228708988e+00 1.011714319978623378e+00 1.018810477228708988e+00 -6.020267621864087815e+00 -7.038807433061700092e-01 1.011714319978623378e+00 -7.038807433061700092e-01 -4.512179259724833358e+00
-1.281438805738693532e+01 9.865353640216858455e-01 9.668826400054125747e-01 9.865353640216858455e-01 -6.160175763146409800e+00 -5.708586762307803486e-01 9.668826400054125747e-01 -5.708586762307803486e-01 -4.495617497863889866e+00
-1.280445975588707697e+01 9.514440648316333515e-01 9.147197078591835506e-01 9.514440648316333515e-01 -6.264327210846073690e+00 -4.457957218686238177e-01 9.147197078591835506e-01 -4.457957218686238177e-01 -4.420377712192319564e+00
-1.268060976529769590e+01 9.094138068195770641e-01 8.559825633698115999e-01 9.094138068195770641e-01 -6.263651191418257547e+00 -3.286682448925954958e-01 8.559825633698115999e-01 -3.286682448925954958e-01 -4.220299381219803081e+00
-1.255592843818184434e+01 8.646339015180557475e-01 7.875681687060506198e-01 8.646339015180557475e-01 -6.259509788671800301e+00 -2.172597786721419677e-01 7.875681687060506198e-01 -2.172597786721419677e-01 -3.988663587819795353e+00
-1.237548038712527898e+01 8.110435786060632424e-01 7.072638929123580276e-01 8.110435786060632424e-01 -6.210803871444259272e+00 -1.053056267934500551e-01 7.072638929123580276e-01 -1.053056267934500551e-01 -3.677977009533481834e+00
-1.216309219834817767e+01 7.511493901605911239e-01 6.177135376402884681e-01 7.511493901605911239e-01 -6.127701033344886916e+00 -1.569095161339400491e-05 6.177135376402884681e-01 -1.569095161339400491e-05 -3.307648677365552903e+00
-1.188666835296800706e+01 6.882032432233095021e-01 5.223376276349216418e-01 6.882032432233095021e-01 -5.982263542165226156e+00 9.893958698224633586e-02 5.223376276349216418e-01 9.893958698224633586e-02 -2.863485503522455566e+00
-1.157183806597525511e+01 6.166307304856123439e-01 4.159579165007530888e-01 6.166307304856123439e-01 -5.805366125710473391e+00 1.969422673021710146e-01 4.159579165007530888e-01 1.969422673021710146e-01 -2.364825316528471166e+00
-5.988165909206270676e+00 1.860834833429207746e+00 -2.708201045145562924e-01 1.860834833429207746e+00 -1.639883902472689314e+01 2.520690485323132446e+00 -2.708201045145562924e-01 2.520690485323132446e+00 -1.077794804961574293e+01
-6.113771302843108657e+00 1.937020351996275203e+00 -1.099806910525781140e-01 1.937020351996275203e+00 -1.637779869978980329e+01 2.367230338035405168e+00 -1.099806910525781140e-01 2.367230338035405168e+00 -1.079722086848580354e+01
-6.154921109360011577e+00 2.006722553082150640e+00 4.874018352252743047e-02 2.006722553082150640e+00 -1.626432568122953626e+01 2.204126504523623797e+00 4.874018352252743047e-02 2.204126504523623797e+00 -1.070789269109490682e+01
-6.219645656253451449e+00 2.067250019291971608e+00 2.003802352797217079e-01 2.067250019291971608e+00 -1.616829663763027369e+01 2.037779156968355210e+00 2.003802352797217079e-01 2.037779156968355210e+00 -1.062373319161341456e+01
-6.199101879808361026e+00 2.119019520886106900e+00 3.426607026695678293e-01 2.119019520886106900e+00 -1.598285558557645736e+01 1.872145365630307312e+00 3.426607026695678293e-01 1.872145365630307312e+00 -1.044661343609588222e+01
-6.179647064519300237e+00 2.163284613039756277e+00 4.789902770550381605e-01 2.163284613039756277e+00 -1.579370596378323022e+01 1.698312899311551272e+00 4.789902770550381605e-01 1.698312899311551272e+00 -1.023723610809115669e+01
-6.115010761619742219e+00 2.203249204186057408e+00 6.163743462926153382e-01 2.203249204186057408e+00 -1.553955151142608315e+01 1.509019491082065567e+00 6.163743462926153382e-01 1.509019491082065567e+00 -9.956587135771416186e+00
-6.052006754040843539e+00 2.239462031320796243e+00 7.503431447623277739e-01 2.239462031320796243e+00 -1.528015080098959722e+01 1.311398236623329439e+00 7.503431447623277739e-01 1.311398236623329439e+00 -9.651259460571351312e+00
-5.931336602231944255e+00 2.269155720790021480e+00 8.769836999813559464e-01 2.269155720790021480e+00 -1.495893798989266799e+01 1.109962973509535544e+00 8.769836999813559464e-01 1.109962973509535544e+00 -9.269019936539597992e+00
-5.770790979193858306e+00 2.293619882771596785e+00 9.968488344854838923e-01 2.293619882771596785e+00 -1.459369502632506510e+01 9.049696189089260212e-01 9.968488344854838923e-01 9.049696189089260212e-01 -8.831058983393198503e+00
-2.014438757322799312e+00 -1.585525422370347881e+00 7.118317870033480377e-01 -1.585525422370347881e+00 -6.865468707998016562e+00 2.503631677183093984e+00 7.118317870033480377e-01 2.503631677183093984e+00 -1.284188208264277264e+01
-1.944575633817832605e+00 -1.605494003114580570e+00 5.569225133870928657e-01 -1.605494003114580570e+00 -6.877308383008319481e+00 2.579755889190705975e+00 5.569225133870928657e-01 2.579755889190705975e+00 -1.289632360990622750e+01
-1.861936440721502217e+00 -1.628373324972615777e+00 3.814304120503397288e-01 -1.628373324972615777e+00 -6.891034322630902764e+00 2.648764206601917692e+00 3.814304120503397288e-01 2.648764206601917692e+00 -1.292361814733624392e+01
-1.743756578509457089e+00 -1.658609016615160359e+00 1.924055238480857077e-01 -1.658609016615160359e+00 -6.872492026569735124e+00 2.713241806556488722e+00 1.924055238480857077e-01 2.713241806556488722e+00 -1.290758545418123582e+01
-1.530574687500005249e+00 -1.693428116260849770e+00 -1.707732332958011856e-03 -1.693428116260849770e+00 -6.757136494325329146e+00 2.773372975992920875e+00 -1.707732332958011856e-03 2.773372975992920875e+00 -1.279380578500624921e+01
-1.363705158601529854e+00 -1.728447700318100910e+00 -2.102003097416453858e-01 -1.728447700318100910e+00 -6.704957463321087552e+00 2.821147763868304903e+00 -2.102003097416453858e-01 2.821147763868304903e+00 -1.271227754414648636e+01
-1.159390391250993524e+00 -1.767090942574913059e+00 -4.366994577460524551e-01 -1.767090942574913059e+00 -6.628746271994813810e+00 2.863588746909881966e+00 -4.366994577460524551e-01 2.863588746909881966e+00 -1.258158426341643121e+01
-9.381973161340582124e-01 -1.811817653484327106e+00 -6.769948545488975178e-01 -1.811817653484327106e+00 -6.543457140250144910e+00 2.897930601740118295e+00 -6.769948545488975178e-01 2.897930601740118295e+00 -1.243107820798511653e+01
-6.883869019199702066e-01 -1.856643123338223234e+00 -9.194263886718982981e-01 -1.856643123338223234e+00 -6.432310712657762330e+00 2.922861409155240953e+00 -9.194263886718982981e-01 2.922861409155240953e+00 -1.223627204506058774e+01
-4.213919915930092741e-01 -1.900889779595588136e+00 -1.162874098305110016e+00 -1.900889779595588136e+00 -6.306645986909630963e+00 2.937178638605794756e+00 -1.162874098305110016e+00 2.937178638605794756e+00 -1.201188870592465108e+01
9.078974726659563288e-01 2.005846284619619002e+00 -9.896974623126333359e-01 2.005846284619619002e+00 -7.342628370957678285e+00 -3.600477314880843327e-01 -9.896974623126333359e-01 -3.600477314880843327e-01 1.508033730934279726e+00
9.164600933860157506e-01 2.051263945104283337e+00 -8.596446711172794908e-01 2.051263945104283337e+00 -7.284603599339601665e+00 -4.665147627687239451e-01 -8.596446711172794908e-01 -4.665147627687239451e-01 1.394561739463920480e+00
9.458488291303990270e-01 2.090549749040889083e+00 -7.290096611477508981e-01 2.090549749040889083e+00 -7.192063638376059664e+00 -5.842700174204954466e-01 -7.290096611477508981e-01 -5.842700174204954466e-01 1.316700928015138716e+00
1.024681196731291877e+00 2.131899561859180725e+00 -5.977811032404446445e-01 2.131899561859180725e+00 -7.029767714409472568e+00 -7.078205800731353081e-01 -5.977811032404446445e-01 -7.078205800731353081e-01 1.275695049356474708e+00
1.165734891757009173e+00 2.174674501410680527e+00 -4.726729797286782220e-01 2.174674501410680527e+00 -6.790805331265326927e+00 -8.368829100112462616e-01 -4.726729797286782220e-01 -8.368829100112462616e-01 1.306316099095634620e+00
1.249243494158873258e+00 2.208580569159372065e+00 -3.499502812926667539e-01 2.208580569159372065e+00 -6.592678456314827962e+00 -9.710109052763090665e-01 -3.499502812926667539e-01 -9.710109052763090665e-01 1.276500073267873292e+00
1.380974611107493422e+00 2.243548818583561921e+00 -2.260632378034957701e-01 2.243548818583561921e+00 -6.325525286233238731e+00 -1.116990332176104772e+00 -2.260632378034957701e-01 -1.116990332176104772e+00 1.308833525687936206e+00
1.507488668331218529e+00 2.279711520251107348e+00 -1.019607410701045130e-01 2.279711520251107348e+00 -6.042853344064972987e+00 -1.269441658415256580e+00 -1.019607410701045130e-01 -1.269441658415256580e+00 1.343344388279906543e+00
1.637457823152557834e+00 2.315163323142713558e+00 1.530677121789121228e-02 2.315163323142713558e+00 -5.744261894644592026e+00 -1.423299119894089859e+00 1.530677121789121228e-02 -1.423299119894089859e+00 1.377401488539084395e+00
1.774511210853921384e+00 2.349276677379314116e+00 1.259434192364686789e-01 2.349276677379314116e+00 -5.430038328649083645e+00 -1.577254669586032998e+00 1.259434192364686789e-01 -1.577254669586032998e+00 1.427271802565542203e+00
