7.322533696459577968e+00 1.073364804436261654e-18 5.923809619917731120e-23 -3.639612622800322939e+00 6.373982298489818454e+00 1.525201406143977736e-22 4.722182844541705836e-06 -3.578284288181773563e-06 1.995832899999932053e+01
7.322533599459721820e+00 1.495359203577769047e-18 -3.642783774279728583e-22 -3.639612590796208913e+00 6.373982216517650734e+00 1.525201406143977736e-22 4.745234119694957182e-06 -3.548323655311824085e-06 1.995832896599932127e+01
7.322533407460003474e+00 2.669133016458235585e-19 5.923809619917731120e-23 -3.639612502914055803e+00 6.373981980530698976e+00 -5.923809619917731120e-23 4.806357137526824103e-06 -3.476428062210841555e-06 1.995832874599931728e+01
7.322533166458645049e+00 4.973511078997027150e-19 -1.525201406143977736e-22 -3.639612361137202434e+00 6.373981563994588484e+00 -5.923809619917731120e-23 4.896526264136996594e-06 -3.377582123832496716e-06 1.995832840199931368e+01
7.322532907459025964e+00 -8.189571772301893058e-19 -3.642783774279728583e-22 -3.639612156849489910e+00 6.373980921865168625e+00 1.525201406143977736e-22 5.007707317842901651e-06 -3.271772161028750288e-06 1.995832795999930553e+01
7.322532680457645604e+00 2.615723571034353361e-18 -1.525201406143977736e-22 -3.639611891905538243e+00 6.373980030105911965e+00 -5.923809619917731120e-23 5.132864406457379442e-06 -3.179986199229629426e-06 1.995832749199929523e+01
7.322532514457891217e+00 1.498576037856490587e-19 5.923809619917731120e-23 -3.639611564628089102e+00 6.373978877686282019e+00 -5.923809619917731120e-23 5.262965058429258864e-06 -3.121208838971071554e-06 1.995832701399928411e+01
7.322532429458012970e+00 -7.172573647731296462e-20 5.923809619917731120e-23 -3.639611174929322068e+00 6.373977457090544974e+00 1.525201406143977736e-22 5.395981921693933908e-06 -3.111436644286900564e-06 1.995832652699926513e+01
7.322532439457996034e+00 1.348660242020827316e-18 5.923809619917731120e-23 -3.639610712888198485e+00 6.373975734289766493e+00 -5.923809619917731120e-23 5.530896189038359052e-06 -3.161667904447866323e-06 1.995832601799924433e+01
7.322532580457791873e+00 1.516491255645862299e-18 5.923809619917731120e-23 -3.639610169636918080e+00 6.373973663238045262e+00 1.525201406143977736e-22 5.672675369049036253e-06 -3.290911163549294152e-06 1.995832552299921403e+01
7.315153915999999867e+00 0.000000000000000000e+00 0.000000000000000000e+00 -3.626502561000000124e+00 6.406996852999999881e+00 0.000000000000000000e+00 1.923184500000000088e-02 5.167944650000000362e-01 2.027613145899999836e+01
7.315153955999999624e+00 0.000000000000000000e+00 0.000000000000000000e+00 -3.626502571000000064e+00 6.406997121999999933e+00 0.000000000000000000e+00 1.923192099999999904e-02 5.167957130000000454e-01 2.027613285400000009e+01
7.315153987999999607e+00 0.000000000000000000e+00 0.000000000000000000e+00 -3.626502605000000212e+00 6.406997608000000177e+00 0.000000000000000000e+00 1.923211199999999912e-02 5.167979950000000100e-01 2.027613533699999948e+01
7.315154031999999695e+00 0.000000000000000000e+00 0.000000000000000000e+00 -3.626502689000000057e+00 6.406998312999999889e+00 0.000000000000000000e+00 1.923243200000000069e-02 5.168012819999999730e-01 2.027613887600000098e+01
7.315154108999999849e+00 0.000000000000000000e+00 0.000000000000000000e+00 -3.626502852000000221e+00 6.406999252000000311e+00 0.000000000000000000e+00 1.923290100000000016e-02 5.168056269999999897e-01 2.027614351600000120e+01
7.315154242000000195e+00 0.000000000000000000e+00 0.000000000000000000e+00 -3.626503120000000191e+00 6.407000423999999583e+00 0.000000000000000000e+00 1.923353400000000005e-02 5.168110049999999900e-01 2.027614921300000006e+01
7.315154437000000343e+00 0.000000000000000000e+00 0.000000000000000000e+00 -3.626503505000000072e+00 6.407001790999999891e+00 0.000000000000000000e+00 1.923432500000000003e-02 5.168172349999999859e-01 2.027615574900000084e+01
7.315154694000000291e+00 0.000000000000000000e+00 0.000000000000000000e+00 -3.626504011999999832e+00 6.407003319000000197e+00 0.000000000000000000e+00 1.923526999999999876e-02 5.168241559999999790e-01 2.027616292200000103e+01
7.315155017000000370e+00 0.000000000000000000e+00 0.000000000000000000e+00 -3.626504656999999909e+00 6.407005010999999861e+00 0.000000000000000000e+00 1.923638600000000115e-02 5.168317909999999848e-01 2.027617071999999965e+01
7.315155425000000378e+00 0.000000000000000000e+00 0.000000000000000000e+00 -3.626505469000000037e+00 6.407006895000000313e+00 0.000000000000000000e+00 1.923770299999999836e-02 5.168402410000000335e-01 2.027617922099999959e+01
7.345250887999999811e+00 0.000000000000000000e+00 0.000000000000000000e+00 -3.680023652000000034e+00 6.224998345999999572e+00 0.000000000000000000e+00 4.036886299999999927e-01 3.910576370000000135e-01 2.053995833600000154e+01
7.345250945000000087e+00 0.000000000000000000e+00 0.000000000000000000e+00 -3.680023788999999823e+00 6.224997626999999589e+00 0.000000000000000000e+00 4.036896640000000036e-01 3.910585699999999942e-01 2.053996009000000100e+01
7.345250985999999926e+00 0.000000000000000000e+00 0.000000000000000000e+00 -3.680024056999999793e+00 6.224996181999999934e+00 0.000000000000000000e+00 4.036916689999999752e-01 3.910602730000000138e-01 2.053996327500000163e+01
7.345250990000000257e+00 0.000000000000000000e+00 0.000000000000000000e+00 -3.680024482999999957e+00 6.224994020999999655e+00 0.000000000000000000e+00 4.036946479999999893e-01 3.910627360000000219e-01 2.053996787599999863e+01
7.345250936000000230e+00 0.000000000000000000e+00 0.000000000000000000e+00 -3.680025104999999908e+00 6.224991100999999638e+00 0.000000000000000000e+00 4.036986759999999785e-01 3.910660220000000131e-01 2.053997398899999993e+01
7.345250794000000027e+00 0.000000000000000000e+00 0.000000000000000000e+00 -3.680025947999999936e+00 6.224987427000000295e+00 0.000000000000000000e+00 4.037037620000000215e-01 3.910701380000000116e-01 2.053998159600000051e+01
7.345250538000000162e+00 0.000000000000000000e+00 0.000000000000000000e+00 -3.680027008000000155e+00 6.224983102000000379e+00 0.000000000000000000e+00 4.037097689999999961e-01 3.910749749999999914e-01 2.053999045400000156e+01
7.345250145999999702e+00 0.000000000000000000e+00 0.000000000000000000e+00 -3.680028274000000099e+00 6.224978222999999922e+00 0.000000000000000000e+00 4.037165679999999979e-01 3.910804230000000103e-01 2.054000033699999861e+01
7.345249590999999967e+00 0.000000000000000000e+00 0.000000000000000000e+00 -3.680029762999999843e+00 6.224972755999999663e+00 0.000000000000000000e+00 4.037242050000000027e-01 3.910865190000000213e-01 2.054001127700000140e+01
7.345248834000000393e+00 0.000000000000000000e+00 0.000000000000000000e+00 -3.680031511999999783e+00 6.224966621000000089e+00 0.000000000000000000e+00 4.037328059999999996e-01 3.910933719999999947e-01 2.054002342600000119e+01
7.483669714999999556e+00 0.000000000000000000e+00 0.000000000000000000e+00 -3.851482170999999788e+00 6.499629380000000012e+00 0.000000000000000000e+00 -1.818452210000000013e-01 -2.974984259999999825e-01 1.997595056100000122e+01
7.483670663999999917e+00 0.000000000000000000e+00 0.000000000000000000e+00 -3.851483202999999911e+00 6.499630156000000270e+00 0.000000000000000000e+00 -1.818456619999999913e-01 -2.974991339999999984e-01 1.997595181599999847e+01
7.483672434999999901e+00 0.000000000000000000e+00 0.000000000000000000e+00 -3.851485199999999942e+00 6.499631600999999925e+00 0.000000000000000000e+00 -1.818465599999999904e-01 -2.975004860000000084e-01 1.997595408300000130e+01
7.483675017000000373e+00 0.000000000000000000e+00 0.000000000000000000e+00 -3.851488171999999821e+00 6.499633711000000424e+00 0.000000000000000000e+00 -1.818479309999999904e-01 -2.975025250000000177e-01 1.997595735699999864e+01
7.483678454999999730e+00 0.000000000000000000e+00 0.000000000000000000e+00 -3.851492191000000176e+00 6.499636533000000327e+00 0.000000000000000000e+00 -1.818498229999999938e-01 -2.975053400000000070e-01 1.997596171300000023e+01
7.483682711000000154e+00 0.000000000000000000e+00 0.000000000000000000e+00 -3.851497233999999992e+00 6.499640042000000228e+00 0.000000000000000000e+00 -1.818522379999999994e-01 -2.975089570000000183e-01 1.997596711499999955e+01
7.483687629000000285e+00 0.000000000000000000e+00 0.000000000000000000e+00 -3.851503137999999993e+00 6.499644117999999970e+00 0.000000000000000000e+00 -1.818551120000000132e-01 -2.975132930000000120e-01 1.997597336700000170e+01
7.483693104000000318e+00 0.000000000000000000e+00 0.000000000000000000e+00 -3.851509799000000012e+00 6.499648682000000122e+00 0.000000000000000000e+00 -1.818584079999999992e-01 -2.975182949999999882e-01 1.997598033299999898e+01
7.483699188000000113e+00 0.000000000000000000e+00 0.000000000000000000e+00 -3.851517300999999893e+00 6.499653784999999573e+00 0.000000000000000000e+00 -1.818621800000000122e-01 -2.975240559999999812e-01 1.997598808100000056e+01
7.483705945999999720e+00 0.000000000000000000e+00 0.000000000000000000e+00 -3.851525740000000031e+00 6.499659489999999984e+00 0.000000000000000000e+00 -1.818664909999999912e-01 -2.975306890000000148e-01 1.997599669999999961e+01
7.308160231999999645e+00 0.000000000000000000e+00 0.000000000000000000e+00 -3.757804376999999807e+00 6.476772290999999626e+00 0.000000000000000000e+00 -1.967321360000000019e-01 5.430244119999999564e-01 2.031472731999999937e+01
7.308160385999999953e+00 0.000000000000000000e+00 0.000000000000000000e+00 -3.757804988000000179e+00 6.476772914999999742e+00 0.000000000000000000e+00 -1.967327660000000034e-01 5.430258559999999735e-01 2.031472922300000050e+01
7.308160621999999940e+00 0.000000000000000000e+00 0.000000000000000000e+00 -3.757806133999999965e+00 6.476774047000000145e+00 0.000000000000000000e+00 -1.967340180000000105e-01 5.430287270000000444e-01 2.031473278800000060e+01
7.308160947000000185e+00 0.000000000000000000e+00 0.000000000000000000e+00 -3.757807811000000164e+00 6.476775660000000379e+00 0.000000000000000000e+00 -1.967358710000000066e-01 5.430330100000000382e-01 2.031473798800000097e+01
7.308161369999999657e+00 0.000000000000000000e+00 0.000000000000000000e+00 -3.757810050999999874e+00 6.476777758999999968e+00 0.000000000000000000e+00 -1.967383380000000126e-01 5.430387749999999736e-01 2.031474489500000047e+01
7.308161887999999884e+00 0.000000000000000000e+00 0.000000000000000000e+00 -3.757812840000000154e+00 6.476780298999999630e+00 0.000000000000000000e+00 -1.967413879999999893e-01 5.430459810000000109e-01 2.031475343500000008e+01
7.308162478999999934e+00 0.000000000000000000e+00 0.000000000000000000e+00 -3.757816086000000055e+00 6.476783167999999868e+00 0.000000000000000000e+00 -1.967449079999999961e-01 5.430543899999999979e-01 2.031476330399999952e+01
7.308163122999999928e+00 0.000000000000000000e+00 0.000000000000000000e+00 -3.757819705000000177e+00 6.476786266999999597e+00 0.000000000000000000e+00 -1.967488029999999999e-01 5.430637879999999917e-01 2.031477423200000132e+01
7.308163812000000092e+00 0.000000000000000000e+00 0.000000000000000000e+00 -3.757823703000000126e+00 6.476789575999999826e+00 0.000000000000000000e+00 -1.967530749999999995e-01 5.430741949999999818e-01 2.031478621799999829e+01
7.308164546999999622e+00 0.000000000000000000e+00 0.000000000000000000e+00 -3.757828123999999992e+00 6.476793100000000081e+00 0.000000000000000000e+00 -1.967577580000000048e-01 5.430857159999999961e-01 2.031479936599999903e+01
