-1.129891082095024979e+00 6.330610503169705083e+00 5.564065383812542842e-02 -1.180296697132133810e+00 2.114449977584901053e+00 6.694480328033699301e+00 4.786754583344166036e+00 4.414993974801934229e+00 9.415899694675822218e+00 -1.103830588795791101e+00 1.958978051998063519e+00 1.939506030532333014e+01 4.863219948381778401e+00 4.259522478697079784e+00 1.667364967196551717e+01 1.274473991625627134e+00 2.036964323198314109e+00 3.364929986684281005e+00 2.408448367318120287e+00 4.337018658524286252e+00 1.334410001331580453e+01 4.812812554266479914e+00 4.338300079616845550e-02 1.003480934616283093e+01 2.231109425787833889e+00 7.864560086634565794e-02 1.274414970151500626e+01 1.093867021378508442e+00 2.061282065316861534e+00 1.601027001326784216e+01 1.451822769278625413e+00 6.295337458444544509e+00 2.764990298483726683e+00 2.589056048683851419e+00 4.312690495656100964e+00 6.031109986731387984e+00 4.904253981691216069e+00 2.603968124425677377e-01 1.269904935079927988e+01 2.175751749204386964e+00 4.251786612320077374e+00 8.985640038368430282e+00 5.823864087766358111e+00 1.844866991595507821e+00 1.647304935024012806e+01 4.803123202425831018e+00 4.098005299949280200e+00 1.238811966742759019e+01 1.381177948243508480e+00 1.886861511789894585e+00 6.021449960268024704e+00 -2.140940874214047884e+00 4.529115496329692903e+00 6.493880649759882218e+00 4.743324529414367774e+00 4.215287134482753828e+00 1.934510968484852000e+01 4.797056260627874380e+00 1.336704058287700725e-01 5.690479355438914588e+00 -1.221331816022100059e+00 6.113576271093651648e+00 2.719880649200036249e+00 8.261603446038020548e-01 2.262600158589081811e+00 1.317521006571268316e+01 1.464779819607512801e+00 5.976303499820196485e+00 1.987129027154017891e+01 2.218154322091162811e+00 3.976784347161834710e-01 9.892129728458375126e+00 2.301755119165811880e+00 4.487111033615123645e+00 1.600061003972984253e+01 -1.114123283616224480e+00 6.240302191808507537e+00 1.566964064455896022e+01 2.856761968212469416e+00 4.111382849786220817e+00 3.196049934287407801e+00 1.507182144905124144e+00 2.122195465274645976e+00 1.896479996163014903e+01 -1.120201104588426810e+00 2.275977832641962628e+00 2.408950332572521003e+00 -1.060400531417733383e+00 2.158694900186319821e+00 9.365940315151414453e+00
-1.134702906008740797e+00 6.335398735514475632e+00 4.622065487308622128e-02 -1.182160044981976910e+00 2.118343167979686914e+00 6.697480328595373678e+00 4.791118746029818354e+00 4.417426519749030334e+00 9.404169694271772073e+00 -1.109624528476239158e+00 1.956677951823406758e+00 1.939632030593308087e+01 4.861933113599609335e+00 4.255524672130339248e+00 1.667532967182578929e+01 1.270291656021317550e+00 2.035601469865413460e+00 3.364259987147899533e+00 2.406929292044210023e+00 4.337561256070243232e+00 1.333982001356607050e+01 4.813605322964755295e+00 3.915163948799277316e-02 1.003458934572066852e+01 2.231348913865989214e+00 7.249518231793432299e-02 1.274630970099698146e+01 1.090438018725909508e+00 2.056017918592930371e+00 1.601044001332074274e+01 1.457562812380793993e+00 6.301207655289815968e+00 2.772110298163045439e+00 2.589957243506538109e+00 4.319238964528121727e+00 6.034579987125040290e+00 4.906450901437969137e+00 2.644430628812680650e-01 1.270270935081853025e+01 2.170812526709261281e+00 4.252245054684564707e+00 8.993200039079127350e+00 5.827364388180065191e+00 1.850891018128293375e+00 1.646371935023744015e+01 4.805671523892415031e+00 4.091170934583310270e+00 1.238264966654028676e+01 1.382870391630717233e+00 1.882438612101894337e+00 6.026489959687894249e+00 -2.132195962498385722e+00 4.526130544335984496e+00 6.500110648330106322e+00 4.750161270824516890e+00 4.219225454595079583e+00 1.934346968422562441e+01 4.799231079442219716e+00 1.306366834117751730e-01 5.697849354902517760e+00 -1.224009522074124057e+00 6.120770858247742474e+00 2.722900650133432521e+00 8.241462436948161496e-01 2.266053606669326648e+00 1.316932006626024254e+01 1.464302880973383569e+00 5.972244309018409858e+00 1.987185027128501247e+01 2.215935368173384212e+00 3.982922281871241199e-01 9.893529728809836499e+00 2.298453586507978041e+00 4.480366666932879660e+00 1.599940003964852941e+01 -1.107383788272192415e+00 6.234150663504460788e+00 1.566835064315318427e+01 2.850383670894326649e+00 4.112383752609583887e+00 3.204229935237435267e+00 1.513738955195394809e+00 2.120324255880410291e+00 1.895761996058706345e+01 -1.126871335148825315e+00 2.281699242169347386e+00 2.407810333934907288e+00 -1.056956177685275611e+00 2.161239016606319563e+00 9.366930314881789954e+00
-1.139584575873333172e+00 6.340277087415373103e+00 3.661065592471195868e-02 -1.184013341513648676e+00 2.122266341259796185e+00 6.700540329158048536e+00 4.795552977049725385e+00 4.419898944902170612e+00 9.392209693861300224e+00 -1.115508570535253874e+00 1.954318005592568408e+00 1.939759030655042693e+01 4.860596210617552870e+00 4.251486950974913803e+00 1.667702967168974837e+01 1.266009286421882152e+00 2.034218787459073585e+00 3.363579987623616763e+00 2.405400216870228647e+00 4.338103870661657702e+00 1.333546001381770729e+01 4.814407989094354079e+00 3.486026106820076104e-02 1.003436934527241142e+01 2.231598196828239011e+00 6.622474679890037741e-02 1.274851970046814387e+01 1.086968828160110645e+00 2.050643840375479865e+00 1.601061001337045653e+01 1.463393077715261059e+00 6.307207698067843538e+00 2.779390297840299340e+00 2.590878609332983640e+00 4.325887399004567868e+00 6.038139987523830854e+00 4.908747940691920775e+00 2.685591421842885573e-01 1.270636935082960939e+01 2.165863304347665608e+00 4.252703514079469116e+00 9.000940039791196057e+00 5.830944791059403443e+00 1.856974907712270140e+00 1.645428935022853523e+01 4.808219571952406568e+00 4.084176569354555753e+00 1.237704966564039744e+01 1.384602800835179393e+00 1.877995644031489775e+00 6.031669959100724121e+00 -2.123351050804039186e+00 4.523145421450299963e+00 6.506520646886673198e+00 4.757108097624606735e+00 4.223213586514790840e+00 1.934178968359162099e+01 4.801405829905873723e+00 1.275629609371594642e-01 5.705339354362966020e+00 -1.226776988568326843e+00 6.128105599059018971e+00 2.725890651090160599e+00 8.220522625839246089e-01 2.269577191378181702e+00 1.316331006682424665e+01 1.463795839955140288e+00 5.968125169552280340e+00 1.987237027102923648e+01 2.213696414290978964e+00 3.989060557955232955e-01 9.894909729164027112e+00 2.295091729282990212e+00 4.473432403030494164e+00 1.599821003956047782e+01 -1.100504498108248130e+00 6.227878896107911899e+00 1.566703064171884563e+01 2.843955373760973071e+00 4.113384740820551499e+00 3.212559936194300914e+00 1.520335748370789553e+00 2.118442978103264984e+00 1.895035995953772812e+01 -1.133621257884192435e+00 2.287600788202734492e+00 2.406620335322397608e+00 -1.053451755621203079e+00 2.163823030435616523e+00 9.367930314607118447e+00
-1.144426246588502449e+00 6.345155370802936012e+00 2.701065697088912351e-02 -1.185816689658645284e+00 2.126159428971691856e+00 6.703620329711534431e+00 -2.522553461590263613e+00 4.422387382505812425e+00 9.380210693453125970e+00 6.201168056229289682e+00 1.951942013192202729e+00 1.939882930716275666e+01 4.859219341344267917e+00 4.247469298769724233e+00 1.667870967156075679e+01 1.261696933709692825e+00 2.032846156470553112e+00 3.362939988104227229e+00 2.403891141122844743e+00 4.338646451369860380e+00 1.333109001406662308e+01 4.815200706510327500e+00 3.059890030023058177e-02 1.003413934482787973e+01 2.231847445601644608e+00 5.993431158591927543e-02 1.275075969993773128e+01 1.083519568936202715e+00 2.045229728168988625e+00 1.601076001341429489e+01 1.469193376491759073e+00 6.313227792275720063e+00 2.786690297523244819e+00 2.591819940410637457e+00 4.332515799645597632e+00 6.041749987918324294e+00 4.911094962738457248e+00 2.726651366586907987e-01 1.270996935083306312e+01 2.160994012974124079e+00 4.253121837060109378e+00 9.008730040489194124e+00 5.834535091145102825e+00 1.862998781016401262e+00 1.644491935021354223e+01 4.810717517014528433e+00 4.077122290280517092e+00 1.237140966474262882e+01 1.386325346561710470e+00 1.873632693108385094e+00 6.036869958521218216e+00 -2.114566002842886316e+00 4.520240400733869457e+00 6.512970645457751395e+00 4.764044906816931935e+00 4.227191736137775102e+00 1.934009968295820769e+01 4.803540665875699389e+00 1.245393073593391992e-01 5.712839353832811717e+00 -1.229574404522078668e+00 6.135470390958085218e+00 2.728780652053369060e+00 8.198982299978820887e-01 2.273070878789061666e+00 1.315729006739410067e+01 1.463258798228649127e+00 5.964006081549722893e+00 1.987285027077757604e+01 2.211497477385832688e+00 3.995298153003681296e-01 9.896239729513537142e+00 2.291749768920097630e+00 4.466438105314719742e+00 1.599706003946498001e+01 -1.093615208739315170e+00 6.221607111482201802e+00 1.566570064028315734e+01 2.837577076042584689e+00 4.114385643923337277e+00 3.220909937144341484e+00 1.526832575616255738e+00 2.116581871409394910e+00 1.894312995850363990e+01 -1.140341061308183024e+00 2.293572282717599276e+00 2.405390336711301646e+00 -1.049967350891195528e+00 2.166397078332690906e+00 9.368930314334402709e+00
-1.149138036225748616e+00 6.349963432239346339e+00 1.757065799381355223e-02 -1.187520259855017191e+00 2.129922346117476550e+00 6.706680330241132637e+00 -2.518199247460206180e+00 4.424849944770903321e+00 9.368370693052863629e+00 6.195433996879543770e+00 1.949571810169942632e+00 1.940002930775878909e+01 4.857822660705519269e+00 4.243561679910157203e+00 1.668031967144317207e+01 1.257404649632446691e+00 2.031513491056274656e+00 3.362359988585257309e+00 2.402442031719117743e+00 4.339168929210984516e+00 1.332676001430577806e+01 4.815953646193642079e+00 2.646760703272201670e-02 1.003392934439903961e+01 2.232066814073188521e+00 5.371392723459500473e-02 1.275298969941692562e+01 1.080180378205306546e+00 2.039855427736886995e+00 1.601088001344625056e+01 1.474883556660838257e+00 6.319178074401556877e+00 2.793920297215743975e+00 2.592781032773225913e+00 4.339004165942188074e+00 6.045349988299084210e+00 4.913461865130584805e+00 2.767010963686062364e-01 1.271344935082827554e+01 2.156294602292907037e+00 4.253469869273426518e+00 9.016440041158459096e+00 5.838065083946619716e+00 1.868842756299480268e+00 1.643576935019259722e+01 4.813095548296423942e+00 4.070118215560857955e+00 1.236582966386521321e+01 1.388018148975741939e+00 1.869419793052309764e+00 6.042019957957621479e+00 -2.106000680451719731e+00 4.517495756119259021e+00 6.519370644071510235e+00 4.770861528765362181e+00 4.231060090358647940e+00 1.933842968233255633e+01 4.805595672888040681e+00 1.216157897083147144e-01 5.720219353321460254e+00 -1.232342007696242137e+00 6.142725131926932036e+00 2.731500653003847034e+00 8.177340268328305850e-01 2.276464583316641477e+00 1.315135006795746264e+01 1.462691894121061598e+00 5.959967044503941658e+00 1.987330027053633330e+01 2.209378540411864211e+00 4.001534377590019731e-01 9.897509729852110638e+00 2.288487860354741610e+00 4.459473670488099728e+00 1.599597003936092499e+01 -1.086835747405231700e+00 6.215435514878961953e+00 1.566440063887040068e+01 2.831358744469711475e+00 4.115366273185324886e+00 3.229149938070951631e+00 1.533089540267603690e+00 2.114801174592210842e+00 1.893602995750865858e+01 -1.146900864644520901e+00 2.299543503914513565e+00 2.404150338078343108e+00 -1.046543048324669378e+00 2.168911229020702436e+00 9.369920314065174338e+00
-1.153739912388328959e+00 6.354721305559183797e+00 8.220658997796949710e-03 -1.189124001427410926e+00 2.133585092312992870e+00 6.709750330749201019e+00 -2.513895050981481472e+00 4.427302592147015936e+00 9.356570692658667809e+00 6.189789937110735885e+00 1.947201454211761051e+00 1.940117930834252746e+01 4.856386133337862177e+00 4.239744129993213484e+00 1.668186967133815557e+01 1.253102433655198578e+00 2.030220842852269669e+00 3.361839989070812162e+00 2.401032887448428355e+00 4.339671339056693888e+00 1.332244001453791249e+01 4.816686756830981686e+00 2.243634849528960279e-02 1.003374934398080498e+01 2.232286250908272596e+00 4.753354314548943749e-02 1.275522969889926728e+01 1.076951169922125473e+00 2.034470939461094474e+00 1.601096001346239461e+01 1.480463718985108201e+00 6.325118544773014939e+00 2.801130296922524465e+00 2.593761936472787966e+00 4.345382498583282072e+00 6.049009988668479387e+00 4.915858716146574992e+00 2.807070055613923865e-01 1.271681935081703152e+01 2.151755054020292768e+00 4.253737628438083895e+00 9.024110041799582760e+00 5.841544803090498839e+00 1.874526818109127024e+00 1.642674935016590609e+01 4.815373596230757336e+00 4.063124312444279518e+00 1.236024966300227668e+01 1.389691173346131459e+00 1.865336927194312100e+00 6.047129957406995437e+00 -2.097605067894019903e+00 4.514921401526278188e+00 6.525750642721901862e+00 4.777588013497551245e+00 4.234848599214822151e+00 1.933676968171294064e+01 4.807560868024449263e+00 1.188024264247381362e-01 5.727549352831068141e+00 -1.235069663115679672e+00 6.149949804406453779e+00 2.734040653946525179e+00 8.155396695557268760e-01 2.279768339368324348e+00 1.314544006851785696e+01 1.462075057592467697e+00 5.955968093075676428e+00 1.987371027030510007e+01 2.207339603255183746e+00 4.007769238009478707e-01 9.898719730179752929e+00 2.285285933975323758e+00 4.452499133446158552e+00 1.599494003924790420e+01 -1.080136218478246590e+00 6.209304054799597239e+00 1.566311063747175325e+01 2.825250395046834839e+00 4.116336714855056478e+00 3.237359938981759111e+00 1.539146641655640302e+00 2.113100819722395496e+00 1.892899995654732592e+01 -1.153370548799302231e+00 2.305584571013400641e+00 2.402890339438599643e+00 -1.043158831474394033e+00 2.171375448000823827e+00 9.370910313797491398e+00
-1.158308942577948697e+00 6.359547552777616630e+00 1.995711066000297151e+01 -1.190637862503907574e+00 2.137177684916226283e+00 6.712920331239470961e+00 -2.509540768600801552e+00 4.429805154312099091e+00 9.344560692261593360e+00 6.184115740883111556e+00 1.944751148891037618e+00 1.940231930892409551e+01 4.854869640785279827e+00 4.235946716195553741e+00 1.668337967124567811e+01 1.248660235232864180e+00 2.028938433768858740e+00 3.361389989576303527e+00 2.399653760743521769e+00 4.340183697324515144e+00 1.331802001476675912e+01 4.817389935890304287e+00 1.844514058437947066e-02 1.003360934356982170e+01 2.232475465599674358e+00 4.122321024575867354e-02 1.275752969837548711e+01 1.073761722525825135e+00 2.028946382893587419e+00 1.601097001346206383e+01 1.486074104264005546e+00 6.331188963482965448e+00 2.808510296635466474e+00 2.594802891911053067e+00 4.351790728298358779e+00 6.052799989032058292e+00 4.918345669613081839e+00 2.847727602371836197e-01 1.272013935079821145e+01 2.147295335243082803e+00 4.253905250736329080e+00 9.031900042421927566e+00 5.845024436992993344e+00 1.880160879282045672e+00 1.641766935013530215e+01 4.817601388333766721e+00 4.055980494428709449e+00 1.235455966213439716e+01 1.391374300497226768e+00 1.861314043979171329e+00 6.052329956859734850e+00 -2.089209215476043546e+00 4.512487046977833316e+00 6.532230641383328873e+00 4.784374481564761972e+00 4.238627004948295252e+00 1.933508968108436221e+01 4.809496165790392297e+00 1.160491137333497513e-01 5.734999352349505308e+00 -1.237817112663718522e+00 6.157294511057563646e+00 2.736440654901409086e+00 8.132852442588153208e-01 2.283032197942644448e+00 1.313941006908331666e+01 1.461398153510468090e+00 5.951929244081527237e+00 1.987412027007895787e+01 2.205330683193381436e+00 4.014103582823736471e-01 9.899909730504083072e+00 2.282083683387144291e+00 4.445334596400407179e+00 1.599393003911996125e+01 -1.073376825620013353e+00 6.203092492415562376e+00 1.566181063605864132e+01 2.819112063284198388e+00 4.117317207429787018e+00 3.245719939897479644e+00 1.545103863081750184e+00 2.111470635494558046e+00 1.892186995560518170e+01 -1.159879890770468824e+00 2.311825706333854757e+00 2.401590340820070058e+00 -1.039754631476187408e+00 2.173829632936005840e+00 9.371930313526299017e+00
-1.162860527617579409e+00 6.364475340524633928e+00 1.994752066101355936e+01 -1.192071792089496762e+00 2.140730140805613857e+00 6.716220331715667236e+00 -2.505096349739353911e+00 4.432387562505813783e+00 9.332230691858528715e+00 6.178371373793615895e+00 1.942200963482230147e+00 1.940343930950738027e+01 4.853253148291601704e+00 4.232149473418075125e+00 1.668483967116690181e+01 1.244038054138393523e+00 2.027666332352380252e+00 3.361019990107200428e+00 2.398304616801175904e+00 4.340686004386032693e+00 1.331346001499074561e+01 4.818083183340238662e+00 1.449394979452506629e-02 1.003351934316336092e+01 2.232654406839056360e+00 3.475289470643151690e-02 1.275992969784048903e+01 1.070611916080121739e+00 2.023211758289773954e+00 1.601090001343975899e+01 1.491744779936139853e+00 6.337429279401099791e+00 2.816100296353618582e+00 2.595923915544902538e+00 4.358238821250208339e+00 6.056769989387876585e+00 4.920932793851426013e+00 2.889383439360179717e-01 1.272344935077359906e+01 2.142895394121959729e+00 4.253942770695620545e+00 9.039880043025867451e+00 5.848534036613776799e+00 1.885774889327322512e+00 1.640845935009904366e+01 4.819778821470865005e+00 4.048626762284848191e+00 1.234871966125686349e+01 1.393077495969834878e+00 1.857331126537416388e+00 6.057649956312898709e+00 -2.080773072609924057e+00 4.510222623759414518e+00 6.538860640052684303e+00 4.791260983585371669e+00 4.242425239821216110e+00 1.933336968044371673e+01 4.811381600391143820e+00 1.133758864639090591e-01 5.742629351881077149e+00 -1.240594271734217102e+00 6.164809268727045932e+00 2.738680655873801495e+00 8.109507677379511614e-01 2.286266193327617824e+00 1.313323006965736717e+01 1.460631129798656946e+00 5.947820549049983363e+00 1.987452026985964437e+01 2.203361814340182523e+00 4.020737243935359473e-01 9.901079730825312453e+00 2.278871005422059781e+00 4.437920076853169249e+00 1.599295003897374201e+01 -1.066517672321116494e+00 6.196740759291599510e+00 1.566050063462087927e+01 2.812893782869370529e+00 4.118327836735744540e+00 3.254309940826522585e+00 1.550971221315621706e+00 2.109920605024035556e+00 1.891456995468164948e+01 -1.166488754057286359e+00 2.318347012152125242e+00 2.400240342237250246e+00 -1.036300431586527404e+00 2.176283732385897896e+00 9.372990313248278582e+00
-1.167292112972218243e+00 6.369402923135695893e+00 1.993794066200778303e+01 -1.193375978289515249e+00 2.144132374680360886e+00 6.719590332162304058e+00 -2.500651896803569585e+00 4.434989970621731281e+00 9.319810691457062646e+00 6.172656904058385408e+00 1.939590727023086325e+00 1.940452931008187321e+01 4.851556809641917489e+00 4.228442367362540644e+00 1.668621967110617277e+01 1.239305924450605279e+00 2.026424418928725490e+00 3.360749990655509389e+00 2.397005455587518430e+00 4.341178226058582723e+00 1.330883001520714259e+01 4.818716618902495696e+00 1.065286150068650399e-02 1.003348934277376614e+01 2.232813228465097222e+00 2.821261350051608788e-02 1.276236969730272186e+01 1.067591904277899850e+00 2.017356911690268984e+00 1.601074001339025443e+01 1.497345575232232218e+00 6.343739714888375403e+00 2.823800296086889539e+00 2.597114819351962645e+00 4.364616794703659153e+00 6.060879989728650941e+00 4.923569935089164851e+00 2.931138422749092753e-01 1.272665935074294907e+01 2.138665196275589153e+00 4.253830000347640805e+00 9.047890043594799536e+00 5.851973362820049651e+00 1.891229019380593845e+00 1.639927935005978554e+01 4.821856100823914915e+00 4.041183201308397699e+00 1.234281966038595257e+01 1.394760879448647684e+00 1.853458243149901596e+00 6.062979955777464625e+00 -2.072436519479124772e+00 4.508198371068528942e+00 6.545490638754616342e+00 4.798127348801597414e+00 4.246143509101893088e+00 1.933164967979955051e+01 4.813177291512924505e+00 1.108528129108229399e-01 5.750299351436763295e+00 -1.243321362671867103e+00 6.172363940864177501e+00 2.740720656842542624e+00 8.085761031997680259e-01 2.289390257265728756e+00 1.312699007022824738e+01 1.459794106057097807e+00 5.943711973697829443e+00 1.987492026964993741e+01 2.201462979556600530e+00 4.027569708795699643e-01 9.902219731138552916e+00 2.275708105087685507e+00 4.430375472081729882e+00 1.599200003881049348e+01 -1.059688553299473091e+00 6.190369077449529023e+00 1.565920063318567834e+01 2.806705536516587163e+00 4.119358414790514900e+00 3.262989941753069889e+00 1.556638819080827352e+00 2.108510916236804533e+00 1.890720995379648528e+01 -1.173067326873130867e+00 2.325038266422123634e+00 2.398850343663716966e+00 -1.032866300081566102e+00 2.178697866053642684e+00 9.374080312969859108e+00
2.468096824946139911e+00 2.898518130885804466e-04 1.992855966296803771e+01 -1.194500523755403609e+00 2.147324301158915816e+00 6.722990332567825966e+00 -2.496277460978682416e+00 4.437582498314306179e+00 9.307500691064404919e+00 6.167082399864937337e+00 1.936960251492864993e+00 1.940554931063567778e+01 4.849800744414758391e+00 4.224895363784799684e+00 1.668748967106628101e+01 1.234533931515260141e+00 2.025262573786222209e+00 3.360599991215598603e+00 2.395796242832263889e+00 4.341640294016108292e+00 1.330420001540891306e+01 4.819300430582275752e+00 7.031858488685584392e-03 1.003353934240832501e+01 2.232942152690330140e+00 2.173238355168490704e-02 1.276481969677377926e+01 1.064761857936703082e+00 2.011481740404637453e+00 1.601047001331322406e+01 1.502786319286406824e+00 6.350020423946912018e+00 2.831470295839723761e+00 2.598355381112958273e+00 4.370794683060929664e+00 6.065059990046894889e+00 4.926217007914258872e+00 2.972493237413863509e-01 1.272972935070779776e+01 2.134684690253551231e+00 4.253536803026139346e+00 9.055780044115431693e+00 5.855282244780556589e+00 1.896423372179389055e+00 1.639028935001787346e+01 4.823793482819626277e+00 4.033799879682003819e+00 1.233696965953894065e+01 1.396394604780539339e+00 1.849785444982221527e+00 6.068219955264618548e+00 -2.064389436213119655e+00 4.506484613552033558e+00 6.552000637520608350e+00 4.804833474831402995e+00 4.249722052210634260e+00 1.932995967916628288e+01 4.814853341738453807e+00 1.085399443130310448e-01 5.757899351025386636e+00 -1.245948590722399274e+00 6.179838442177684854e+00 2.742480657791363186e+00 8.062011309329027986e-01 2.292334321488163518e+00 1.312079007078498627e+01 1.458897236052164814e+00 5.939693500814120952e+00 1.987531026945556434e+01 2.199694144562563292e+00 4.034399952357394237e-01 9.903299731434032083e+00 2.272665221543411551e+00 4.422840662250974830e+00 1.599111003863166580e+01 -1.053009297501438901e+00 6.184077651841034751e+00 1.565795063177731983e+01 2.800647289838339660e+00 4.120388770734615846e+00 3.271599942661883365e+00 1.561966724950411001e+00 2.107281808372666543e+00 1.889990995297197784e+01 -1.179505780316344010e+00 2.331799281258739587e+00 2.397470345076568421e+00 -1.029502356555237474e+00 2.181002119496070257e+00 9.375190312692369687e+00
-1.111429999999999918e+00 6.361760000000000304e+00 5.809999999999999887e-02 -1.171689999999999898e+00 2.296889999999999876e+00 6.804009999999999891e+00 4.797539999999999694e+00 4.681350000000000122e+00 9.566150000000000375e+00 -1.082330000000000014e+00 2.471690000000000165e+00 1.970444000000000173e+01 4.885769999999999946e+00 4.714590000000000281e+00 1.693601999999999919e+01 1.280270000000000019e+00 2.136120000000000019e+00 3.417310000000000070e+00 2.422050000000000036e+00 4.701229999999999798e+00 1.355977999999999994e+01 4.814849999999999852e+00 3.002099999999999769e-01 1.019377000000000066e+01 2.243739999999999846e+00 4.109400000000000275e-01 1.294938999999999929e+01 1.110780000000000101e+00 2.488710000000000200e+00 1.626047000000000153e+01 1.462269999999999959e+00 6.398970000000000269e+00 2.809029999999999916e+00 2.594090000000000007e+00 4.498400000000000176e+00 6.127959999999999852e+00 4.909959999999999880e+00 5.913500000000000423e-01 1.290113999999999983e+01 2.194080000000000030e+00 4.510150000000000325e+00 9.132080000000000197e+00 5.835519999999999818e+00 2.280689999999999884e+00 1.674116000000000071e+01 4.811860000000000248e+00 4.436619999999999564e+00 1.258039999999999914e+01 1.382509999999999906e+00 2.057900000000000063e+00 6.113249999999999851e+00 -2.126850000000000129e+00 4.721630000000000216e+00 6.597579999999999778e+00 4.769730000000000025e+00 4.739910000000000068e+00 1.964780000000000015e+01 4.796439999999999593e+00 2.838200000000000167e-01 5.785029999999999895e+00 -1.211039999999999894e+00 6.221689999999999721e+00 2.756369999999999987e+00 8.395500000000000185e-01 2.616940000000000044e+00 1.338710000000000022e+01 1.489309999999999912e+00 6.518729999999999691e+00 2.019003999999999976e+01 2.221429999999999794e+00 6.564600000000000435e-01 1.004969000000000001e+01 2.323809999999999931e+00 4.926730000000000054e+00 1.625439000000000078e+01 -1.090840000000000032e+00 6.680329999999999657e+00 1.591935999999999929e+01 2.863480000000000025e+00 4.217769999999999797e+00 3.248139999999999805e+00 1.526210000000000067e+00 2.619429999999999925e+00 1.926026999999999845e+01 -1.109939999999999927e+00 2.347140000000000004e+00 2.445959999999999912e+00 -1.045819999999999972e+00 2.412090000000000067e+00 9.515079999999999316e+00
-1.113909999999999956e+00 6.361740000000000173e+00 6.442000000000000504e-02 -1.163419999999999899e+00 2.299189999999999845e+00 6.803499999999999659e+00 4.800320000000000142e+00 4.688299999999999912e+00 9.573140000000000427e+00 -1.086859999999999937e+00 2.478419999999999845e+00 1.971486000000000161e+01 4.885699999999999932e+00 4.719179999999999708e+00 1.693725999999999843e+01 1.279989999999999961e+00 2.131120000000000125e+00 3.413320000000000132e+00 2.420119999999999827e+00 4.697569999999999801e+00 1.356112000000000073e+01 4.816349999999999909e+00 2.965599999999999903e-01 1.019544999999999924e+01 2.243529999999999802e+00 4.117999999999999994e-01 1.295039000000000051e+01 1.106440000000000090e+00 2.488739999999999952e+00 1.626633999999999958e+01 1.453449999999999909e+00 6.397949999999999804e+00 2.808009999999999895e+00 2.594930000000000181e+00 4.494399999999999729e+00 6.127550000000000274e+00 4.918800000000000061e+00 5.950800000000000534e-01 1.290493000000000023e+01 2.201070000000000082e+00 4.516110000000000291e+00 9.135519999999999641e+00 5.832099999999999618e+00 2.273690000000000211e+00 1.674486999999999881e+01 4.813790000000000013e+00 4.434149999999999814e+00 1.257929999999999993e+01 1.386149999999999993e+00 2.059709999999999930e+00 6.103620000000000267e+00 -2.114599999999999813e+00 4.724590000000000067e+00 6.586590000000000167e+00 4.764770000000000394e+00 4.738419999999999632e+00 1.963775000000000048e+01 4.796899999999999942e+00 2.863200000000000189e-01 5.784440000000000026e+00 -1.208029999999999937e+00 6.220850000000000435e+00 2.760170000000000012e+00 8.372600000000000042e-01 2.616859999999999964e+00 1.338278999999999996e+01 1.496050000000000102e+00 6.518810000000000215e+00 2.019287999999999883e+01 2.224520000000000053e+00 6.573200000000000154e-01 1.005009000000000086e+01 2.324110000000000120e+00 4.919959999999999667e+00 1.624998000000000076e+01 -1.099599999999999911e+00 6.682999999999999829e+00 1.591751000000000005e+01 2.863430000000000142e+00 4.210609999999999964e+00 3.241389999999999993e+00 1.522070000000000034e+00 2.616730000000000000e+00 1.925610999999999962e+01 -1.114149999999999974e+00 2.347350000000000048e+00 2.440360000000000085e+00 -1.051760000000000028e+00 2.413860000000000117e+00 9.514499999999999957e+00
-1.116460000000000008e+00 6.361699999999999910e+00 7.084999999999999631e-02 -1.155000000000000027e+00 2.301520000000000010e+00 6.802999999999999936e+00 4.803160000000000096e+00 4.695389999999999731e+00 9.580239999999999867e+00 -1.091469999999999940e+00 2.485269999999999868e+00 1.972547000000000139e+01 4.885609999999999786e+00 4.723799999999999777e+00 1.693856999999999857e+01 1.279719999999999969e+00 2.126030000000000086e+00 3.409289999999999932e+00 2.418159999999999865e+00 4.693819999999999659e+00 1.356251999999999924e+01 4.817890000000000228e+00 2.928200000000000247e-01 1.019719000000000086e+01 2.243290000000000006e+00 4.126400000000000068e-01 1.295142000000000060e+01 1.102009999999999934e+00 2.488760000000000083e+00 1.627233999999999980e+01 1.444490000000000052e+00 6.396919999999999717e+00 2.806960000000000122e+00 2.595810000000000173e+00 4.490339999999999776e+00 6.127119999999999678e+00 4.927850000000000286e+00 5.988299999999999734e-01 1.290862000000000087e+01 2.208200000000000163e+00 4.522240000000000038e+00 9.139099999999999113e+00 5.828649999999999665e+00 2.266630000000000145e+00 1.674875000000000114e+01 4.815730000000000288e+00 4.431670000000000442e+00 1.257818999999999932e+01 1.389880000000000004e+00 2.061609999999999943e+00 6.093820000000000014e+00 -2.102209999999999912e+00 4.727610000000000312e+00 6.575459999999999638e+00 4.759759999999999991e+00 4.736900000000000333e+00 1.962746999999999886e+01 4.797399999999999665e+00 2.888999999999999901e-01 5.783820000000000405e+00 -1.205039999999999889e+00 6.220040000000000013e+00 2.763970000000000038e+00 8.349100000000000410e-01 2.616779999999999884e+00 1.337842999999999982e+01 1.502909999999999968e+00 6.518950000000000244e+00 2.019577999999999918e+01 2.227660000000000196e+00 6.581599999999999673e-01 1.005044999999999966e+01 2.324390000000000178e+00 4.912959999999999994e+00 1.624543999999999855e+01 -1.108489999999999975e+00 6.685760000000000147e+00 1.591558000000000028e+01 2.863410000000000011e+00 4.203339999999999854e+00 3.234579999999999789e+00 1.517800000000000038e+00 2.613960000000000061e+00 1.925193000000000154e+01 -1.118409999999999904e+00 2.347560000000000091e+00 2.434590000000000032e+00 -1.057830000000000048e+00 2.415669999999999984e+00 9.513820000000000832e+00