-1.095829416800000047e+02
-1.095775109100000009e+02
-1.095602269099999972e+02
-1.095312988499999989e+02
-1.094918180199999966e+02
-1.094423570099999949e+02
-1.093823182800000069e+02
-1.093114307200000042e+02
-1.092313578400000011e+02
-1.091446345699999938e+02
-1.094705217199999936e+02
-1.094677780600000006e+02
-1.094560046499999970e+02
-1.094352664900000036e+02
-1.094063211999999936e+02
-1.093695519599999955e+02
-1.093244377399999934e+02
-1.092706521399999957e+02
-1.092093402099999935e+02
-1.091423384600000048e+02
-1.092679594199999968e+02
-1.092586409099999969e+02
-1.092407341800000040e+02
-1.092144452699999988e+02
-1.091807332399999950e+02
-1.091401349599999975e+02
-1.090922061100000064e+02
-1.090367428499999960e+02
-1.089750983800000057e+02
-1.089093461899999937e+02
-1.092503790199999969e+02
-1.092535420800000026e+02
-1.092491686299999998e+02
-1.092372106800000040e+02
-1.092182299800000038e+02
-1.091924721299999987e+02
-1.091594258599999989e+02
-1.091188485699999973e+02
-1.090717862399999945e+02
-1.090195536100000027e+02
-1.093258361400000069e+02
-1.093196316399999972e+02
-1.093001328400000034e+02
-1.092672430199999951e+02
-1.092218736100000029e+02
-1.091643653000000000e+02
-1.090935958200000044e+02
-1.090087096799999955e+02
-1.089111261500000012e+02
-1.088034320600000058e+02
