9.128051744209401876e-04 2.230447965842058660e-03 -6.247099994865795008e-02 6.618487443196363618e-02 -1.885215406488355630e-02 5.056989473896243009e-03 -2.280980654329474097e-02 1.125200722574701793e-02 -4.136399599711329533e-02 2.279880893654573706e-02 -1.124398190840846141e-02 -4.135700400075258132e-02 -6.619986790042020619e-02 1.885517890069938682e-02 5.062010528390144606e-03 -1.407118117623929257e-02 1.102106621913477233e-02 1.230600279127610185e-02 1.406618283543033254e-02 -1.102205961353168624e-02 1.230599720932841305e-02 -8.848974863895686443e-04 -2.274485900562139753e-03 -6.248300005862975071e-02 1.568139836837059578e-03 -3.444073362433772850e-02 3.788299706820379142e-02 -4.596639197887750043e-03 -1.383016725163749988e-02 4.866999953643080801e-02 -1.561134627830673997e-03 3.443771568547719653e-02 3.788300293060235108e-02 4.597654199157542518e-03 1.383115785988490477e-02 4.867200046350995263e-02 1.211466848060951673e-01 -2.719210083849600210e-02 -1.039720186900383453e-01 9.517542752066279754e-02 8.350325065576699041e-03 1.151839876612989061e-01 7.127909028105364198e-02 -5.384392273785687522e-02 1.359549860170825020e-01 -8.175607356009174931e-02 -1.005963999068244380e-01 -7.532599677284809725e-02 5.769417093625140401e-03 1.037862830462980973e-01 9.172500740165401290e-02 -7.127905485711286127e-02 5.384290128356455235e-02 1.359540139828354366e-01 2.265255347752096957e-03 -1.623189346367790234e-02 -2.697600159017809682e-02 -5.867094595477514996e-02 5.349292816273297502e-03 -2.560099156551595354e-02 -1.211547097744238854e-01 2.719413091833735446e-02 -1.039769813087081246e-01 -1.273845631410333579e-01 3.254277925436591806e-02 -4.588980035878188757e-03 -3.070157925469109775e-02 6.716494681961202723e-03 -1.063519952772636473e-01 3.067856049561300605e-02 -6.710438593931693750e-03 -1.063540047191175869e-01 -5.770395457439766833e-03 -1.037882958100129344e-01 9.172799259832306595e-02 5.867093896225013955e-02 -5.349288775954936376e-03 -2.560200843448340660e-02 1.273845653061309591e-01 -3.254077853307123236e-02 -4.589019963964349053e-03 -9.518135332200407250e-02 -8.325333023682289502e-03 1.151740123414852768e-01 8.176005298104188634e-02 1.005964049571556329e-01 -7.532200322769683210e-02 -2.258240506287477120e-03 1.624488573752861167e-02 -2.697999840975536315e-02
8.142151728756509554e-02 -2.375620600190446116e-02 2.570498700613981294e-02 1.229021291632695773e-01 -9.246920607389993996e-02 1.544397591935535614e-02 -4.848728067662013558e-02 4.557883495788258958e-03 -2.819993018693710014e-03 8.546243371327863492e-02 -1.853609843201381099e-02 -6.147201313380058763e-02 -7.946278092322198172e-02 8.035194212277894932e-02 -4.359398280778680607e-02 -2.831205290172944880e-02 3.099643290864114928e-02 5.833300631229099836e-02 4.875401340052516047e-02 -1.817135992254847662e-02 1.081899190805743136e-02 -2.166424507480316924e-02 7.476414078796229934e-02 -2.649699114195078545e-02 -1.184902556396692785e-02 -8.198762222244344519e-03 3.974800097121309467e-02 6.673553859307394809e-02 -2.314410117799443542e-02 2.579890600264372977e-04 -7.090747411213337015e-02 1.850322354742713060e-02 2.146501114351152817e-02 2.309582189290318791e-02 -6.507057702856838821e-02 7.080399171134663105e-02 1.090834928788943364e-01 -3.489749090272719484e-02 -1.325740176506478296e-01 1.500157105988386697e-01 -3.423646926453489947e-02 7.284197681161627691e-02 3.116440110107920880e-02 -1.168164517171293021e-01 1.715479865263088988e-01 -1.119839736238094630e-01 -7.711170045632090297e-02 -5.336699079165496684e-02 -6.052082993101706200e-03 1.462155536306882220e-01 5.649101236405619508e-02 -1.382654118787407238e-01 1.209754983974662967e-01 9.797502842809908963e-02 -3.817429932120649377e-02 -4.987082241328404109e-02 -1.558699872193552820e-02 -8.158606949241163642e-02 5.502753427070169318e-02 -4.259698451611486358e-02 -7.628907677819482536e-02 5.299417855282923320e-03 -1.707309891634374577e-01 -1.077298909549799927e-01 -2.266189703703071559e-02 8.299012923904704186e-03 -4.659880336674800116e-02 2.590469392607286370e-02 -9.328299159216346670e-02 6.085074309441807633e-02 -3.119004919108479303e-03 -1.071840085561820560e-01 2.638894772299786584e-02 -9.191424696253100435e-02 9.577698914344587311e-02 8.037958010183077900e-03 1.986129105968788625e-02 -1.121499953049021753e-02 1.489772765392250453e-01 -2.863167894579840209e-02 -1.859602260430944995e-02 -1.805777280556634390e-01 3.189668858644367777e-02 1.206050271774534860e-01 1.095422208741590880e-01 1.088609298122448499e-01 -6.643800636962587935e-02 -2.371691951399031509e-02 -1.455748177013610825e-02 -1.883099790980447344e-02
1.632087985312457579e-01 -5.116604735119710534e-02 1.127129736740287019e-01 1.805070447494420693e-01 -1.697957807643891981e-01 2.617096195087986396e-02 -7.363596205229021308e-02 -2.258144446801519951e-03 3.828200987789246584e-02 1.441547276896127661e-01 -2.601842733394900756e-02 -8.070102173951455848e-02 -9.307409346061214228e-02 1.422003013467605104e-01 -9.206797606864038086e-02 -4.265624266188943609e-02 5.254097848551242400e-02 1.043880099712362758e-01 8.277046894020123613e-02 -2.553951302736289300e-02 9.544986681203080151e-03 -4.355228348600839738e-02 1.537396652404729724e-01 1.064501807897329233e-02 -2.471860539774761029e-02 1.721527206433188378e-02 4.097300473411093907e-02 1.401396466886996595e-01 -3.250057660426650119e-02 -4.820502170268804037e-02 -1.381784216190247161e-01 2.211183493086107781e-03 5.656019044782458101e-03 4.266840694696859976e-02 -1.448991497089081038e-01 9.286298273932043490e-02 9.638601653220459087e-02 -4.335379792350740197e-02 -1.611100165838898757e-01 2.058675461550847630e-01 -7.884099542514463876e-02 2.904496566457554288e-02 -1.119726764330448293e-02 -1.809451416804957469e-01 2.063109872511629805e-01 -1.417880744241520052e-01 -5.257472386693268218e-02 -3.107498478530468233e-02 -1.860966394897056730e-02 1.880130814337259149e-01 2.127801737713214472e-02 -2.052201768067981880e-01 1.919650474039866495e-01 5.682404317339317945e-02 -7.917430423082516544e-02 -8.494279550859812344e-02 -4.166995890233573217e-03 -1.055817627873537334e-01 1.072986264735524276e-01 -5.958797711454919682e-02 -3.162269079036165997e-02 -1.849495757845054378e-02 -2.354989971408551486e-01 -8.828773474376754027e-02 -7.758320967286304326e-02 2.120200593506925066e-02 -6.232813894241821112e-02 4.561260698543357500e-02 -8.042398788898115491e-02 9.087204394589533385e-02 -4.331410929355560257e-05 -1.079880124133378305e-01 5.883078613115772654e-02 -7.975068052525494111e-02 9.953298567283461185e-02 -4.330859277619038272e-02 4.473909007219239314e-02 3.243009444692830558e-03 1.701234157413599457e-01 -2.447181569925859293e-02 -3.256402516388175877e-02 -2.634813858228545191e-01 7.546145456788244665e-02 1.242390419367741250e-01 1.371837634183044885e-01 1.167596944762759881e-01 -5.735600952121189949e-02 -4.525192327355524041e-02 -4.496471823318842764e-02 -1.078099736825134831e-02
2.448688319423467374e-01 -7.989067288916242016e-02 1.970399602555471530e-01 2.379781950935926371e-01 -2.493251300159431694e-01 3.696794782685401681e-02 -9.824233113846597698e-02 -8.892099244265119079e-03 8.150001271478513054e-02 1.986343441708402491e-01 -3.330855551838080020e-02 -9.892702975475980987e-02 -1.069107164983955777e-01 2.032820444441097996e-01 -1.392029693592153616e-01 -5.741622703537159478e-02 7.537623671831229777e-02 1.494040137888122954e-01 1.154644135701092950e-01 -3.262040521783764885e-02 8.413981657623774077e-03 -6.605758261662997288e-02 2.331482453651344267e-01 4.783302741836625155e-02 -3.661106695234782327e-02 4.152763467255015523e-02 4.132800827663867665e-02 2.143439452081714602e-01 -4.174641965776241387e-02 -9.555003256595144545e-02 -2.022630044187835596e-01 -1.387030264396624593e-02 -8.951973472476835655e-03 6.335984499401189907e-02 -2.242296340389991760e-01 1.147969736538001495e-01 8.335643997828019736e-02 -5.186853746256330638e-02 -1.885660154763897089e-01 2.614874677069155551e-01 -1.251501275992327744e-01 -1.540104558530195483e-02 -5.523354098110785232e-02 -2.448409688877786206e-01 2.396729882230830555e-01 -1.703557941446570689e-01 -2.781586025479367008e-02 -8.717978930291431922e-03 -3.154004746856087227e-02 2.281712440028856037e-01 -1.333697768823798382e-02 -2.707116063089493596e-01 2.654900991639994046e-01 1.216805791892013044e-02 -1.200294767519604067e-01 -1.206980171694713305e-01 7.281006867775569741e-03 -1.307969690951691077e-01 1.610258052489731695e-01 -7.675496943154333507e-02 1.240155156841922512e-02 -4.412823837617719375e-02 -2.970150051756831888e-01 -6.955804781710095419e-02 -1.310233023582708933e-01 3.394099916041112136e-02 -7.753242234127945276e-02 6.535062265889834965e-02 -6.783198425512666774e-02 1.197881208407165499e-01 2.902265592225306348e-03 -1.084290161298260280e-01 9.083739597851592240e-02 -6.713536946351071621e-02 1.027289822973060096e-01 -9.386754121306442600e-02 6.879854169945325004e-02 1.741701824774390464e-02 1.904175407517847141e-01 -2.031949610893091576e-02 -4.694202760769455862e-02 -3.425303985747649160e-01 1.217406360654524899e-01 1.263800563838762547e-01 1.640943566606298254e-01 1.241037077267998778e-01 -4.837201261675019154e-02 -6.603953335179491013e-02 -7.455723100306174689e-02 -2.577996864477933182e-03
3.252787591523909616e-01 -1.092611624217963290e-01 2.782589469568206297e-01 2.945019588448936632e-01 -3.296648611483921631e-01 4.751093376825948206e-02 -1.222608443663535660e-01 -1.502605830942110518e-02 1.275400155108511457e-01 2.483532189781747779e-01 -4.044354629904636789e-02 -1.162960371076147276e-01 -1.205803495148657645e-01 2.626024994289233305e-01 -1.847139628115728738e-01 -7.197664963525565729e-02 9.912515530706389466e-02 1.929790176512309885e-01 1.464973675182711932e-01 -3.969445840899255701e-02 7.717976861416351968e-03 -8.891668116242340547e-02 3.120894295661811313e-01 8.476003676919688368e-02 -4.766977408506476582e-02 6.452557034707824546e-02 4.077301160158696564e-02 2.881062154269669051e-01 -5.042350649398453372e-02 -1.413790433239710820e-01 -2.632884360565750370e-01 -2.986601751810614644e-02 -2.289496640073999598e-02 8.427203620505223369e-02 -3.019494932997039416e-01 1.361419646652214377e-01 7.018503481127622012e-02 -6.086803540085674452e-02 -2.147650143877722073e-01 3.160632095875755554e-01 -1.715634752031767740e-01 -5.984405670080651662e-02 -9.978311150351111547e-02 -3.071549162999526739e-01 2.714189893899227046e-01 -1.973360034586953693e-01 -2.759709602903686557e-03 1.331502673138270157e-02 -4.458809696841341264e-02 2.661846044759995089e-01 -4.684397290677917713e-02 -3.337960499738503173e-01 3.395900378673130104e-01 -3.495292761889644273e-02 -1.598678422521395970e-01 -1.565669769281517743e-01 1.842300947794926411e-02 -1.561953187604955551e-01 2.152542977995356155e-01 -9.377096168396718834e-02 5.474318683478778674e-02 -7.070064488582919471e-02 -3.543860130548317500e-01 -5.148847483935734687e-02 -1.821892634072764250e-01 4.657599265534669020e-02 -9.165670053370283954e-02 8.509079238875308371e-02 -5.569198076859214336e-02 1.474771654637722085e-01 5.244941677675750945e-03 -1.086510197263189370e-01 1.219611967560954024e-01 -5.440754926922931195e-02 1.053679790512154490e-01 -1.430743188655510811e-01 9.178668062076385248e-02 3.111802678160222740e-02 2.094749786511807821e-01 -1.598306247685292794e-02 -6.130202986809171056e-02 -4.168777314229080710e-01 1.695837836779080787e-01 1.271980703123058165e-01 1.900351907969046461e-01 1.304193770169999045e-01 -3.950201566099768857e-02 -8.617576688925578099e-02 -1.027598550607626143e-01 5.183003660013010654e-03
4.047257081677574364e-01 -1.397880074512505566e-01 3.572089336983557684e-01 3.499927498678874205e-01 -4.105728274551063706e-01 5.793791980589058782e-02 -1.459987302661912290e-01 -2.079349677270015892e-02 1.768170182975146998e-01 2.938231035339269326e-01 -4.756927453394616673e-02 -1.328070438794770602e-01 -1.337814305773613321e-01 3.199051504469566098e-01 -2.285509564871359978e-01 -8.651247088680114050e-02 1.238110332992356094e-01 2.353440215842245442e-01 1.758393444771529368e-01 -4.675362127730294665e-02 7.195972297311229587e-03 -1.119816529330974753e-01 3.905199649264524120e-01 1.212940461078518273e-01 -5.789226351523416025e-02 8.589507440523472259e-02 3.932901468384221444e-02 3.616042810252481088e-01 -5.863514112411890439e-02 -1.858440540091827464e-01 -3.219779445193744483e-01 -4.590872521001080481e-02 -3.625095965171618723e-02 1.055997616149592505e-01 -3.781870606016533021e-01 1.571019557368564523e-01 5.702338541211419976e-02 -7.001055032581667004e-02 -2.395330133117724858e-01 3.695280917212874217e-01 -2.184789248003838058e-01 -1.038110677042287933e-01 -1.450651600605974423e-01 -3.679926094202299880e-01 3.010449907732784536e-01 -2.228392371857310095e-01 2.228091650522473141e-02 3.509103219012969788e-02 -5.770867069398506050e-02 3.021360857914167641e-01 -7.907196827811235895e-02 -3.941983954826696057e-01 4.143303932909009890e-01 -8.456091347245549283e-02 -1.986452503546126680e-01 -1.924617501528648744e-01 2.917001194119533958e-02 -1.821760197509337542e-01 2.698627862328883964e-01 -1.104069538268752787e-01 9.567782989396934890e-02 -9.785264763259576837e-02 -4.080340207875707281e-01 -3.418015582367542327e-02 -2.311629200563276032e-01 5.876098642723053683e-02 -1.048772997433769505e-01 1.046424172532589153e-01 -4.395697742034507943e-02 1.738045420966010668e-01 7.197944612509023926e-03 -1.085340231676043404e-01 1.522639268361554166e-01 -4.172032563858382032e-02 1.071569759140506700e-01 -1.907411824288644808e-01 1.135531856898397557e-01 4.426503500876733527e-02 2.272794902187627308e-01 -1.160248721965809020e-02 -7.531503195390014394e-02 -4.869833872051406165e-01 2.189896835811428188e-01 1.263310837847875234e-01 2.148610437198572864e-01 1.361619512769236262e-01 -3.067701859819909477e-02 -1.054108036445143282e-01 -1.296780176157829034e-01 1.288300416278532513e-02
4.836335450962622184e-01 -1.715499327243271421e-01 4.344789204160550700e-01 4.054622436764612758e-01 -4.928247593799703341e-01 6.857690574037575426e-02 -1.691625326622134273e-01 -2.651291673890233611e-02 2.304260210095674388e-01 3.359232323903373896e-01 -5.454924290501293044e-02 -1.486650501796482893e-01 -1.467954893375385816e-01 3.760504800441255013e-01 -2.713799502795580243e-01 -1.010780017895674537e-01 1.498369640972642136e-01 2.769800256270176786e-01 2.038839730014131990e-01 -5.401556701750094558e-02 7.195967894376543474e-03 -1.353498191688249641e-01 4.694220192260186719e-01 1.577730555251237732e-01 -6.732097450520227455e-02 1.059642198656211426e-01 3.716701755508788896e-02 4.358012311106926329e-01 -6.632996967668389199e-02 -2.293940647490580187e-01 -3.786098473648129570e-01 -6.159894937959892874e-02 -4.861095315587581067e-02 1.272511445592010015e-01 -4.540401805580734917e-01 1.779879467946226257e-01 4.345570944947479974e-02 -7.975337219939318545e-02 -2.635030122276932896e-01 4.227986152184523005e-01 -2.661890433691899149e-01 -1.481040787438168971e-01 -1.916599438178354653e-01 -4.280890575363702766e-01 3.291409923943938720e-01 -2.473653203048819804e-01 4.799387343163079300e-02 5.687603756848545744e-02 -7.107153092416564066e-02 3.367499792410966752e-01 -1.107249637219011595e-01 -4.528362057596649892e-01 4.905527351734341734e-01 -1.376078994500428421e-01 -2.371248793455430215e-01 -2.290710333592370362e-01 3.970301430739263393e-02 -2.088698326437048447e-01 3.255764951747543434e-01 -1.269199457851835078e-01 1.359527017705215168e-01 -1.260405243957907206e-01 -4.590940285119484709e-01 -1.698066594664858139e-02 -2.788663888206949770e-01 7.083498031420142060e-02 -1.174366298879925136e-01 1.243509121128498346e-01 -3.252897415002459908e-02 1.993009200791750479e-01 8.567367028969225667e-03 -1.080910265414535970e-01 1.821229138254730484e-01 -2.888234327027020334e-02 1.080649728493817546e-01 -2.379683610830994056e-01 1.345499381559106811e-01 5.704104311514887615e-02 2.440565741920599219e-01 -6.886155384489704538e-03 -8.919603387290411800e-02 -5.541593657318965027e-01 2.705445792649536219e-01 1.239450970267540059e-01 2.388486638185757793e-01 1.411839571974726204e-01 -2.177002147778499264e-02 -1.243182478797332652e-01 -1.556647387310463870e-01 2.054700469431655976e-02
5.623840131130106723e-01 -2.046975909621578937e-01 5.108209070458981094e-01 4.607015499551250781e-01 -5.763562997029457735e-01 7.896289160531916318e-02 -1.920807485757666244e-01 -3.188975630185010568e-02 2.882040237151135553e-01 3.754865393114106276e-01 -6.142287507675053826e-02 -1.644120561249885759e-01 -1.595185157284327582e-01 4.310443104302430495e-01 -3.131729442025827370e-01 -1.154129145544493529e-01 1.773945030007691992e-01 3.179550297591743346e-01 2.308801142882030422e-01 -6.156172109283472582e-02 7.744963612201553882e-03 -1.591656566880040036e-01 5.491018398505613796e-01 1.941200650649097526e-01 -7.600733952311879149e-02 1.250650951182748494e-01 3.426602024855247147e-02 5.108839098530210121e-01 -7.359931158907434545e-02 -2.722010755763187850e-01 -4.340382732180033121e-01 -7.818123188084867559e-02 -6.111894689477980619e-02 1.493324175342296833e-01 -5.305430362242008480e-01 1.985509377424058419e-01 2.908095459661535695e-02 -9.071181640002763669e-02 -2.868620111293185282e-01 4.762639981516293974e-01 -3.145664958471384720e-01 -1.939630898626770739e-01 -2.400121180750005301e-01 -4.884125022067924982e-01 3.576409942375899376e-01 -2.708839554442180608e-01 7.513811041308283978e-02 7.939304292219979964e-02 -8.478488798157939044e-02 3.704884705161237135e-01 -1.426309591868972493e-01 -5.104176287909782950e-01 5.681712738889332925e-01 -1.960268854617188417e-01 -2.765374041784518511e-01 -2.667887236728644917e-01 5.065501671352546503e-02 -2.368731807907239473e-01 3.827334446473033003e-01 -1.448179374507681805e-01 1.758026929505714653e-01 -1.570836792725568420e-01 -5.080200364036083771e-01 5.353184257580860268e-05 -3.255705736773015224e-01 8.386497430259305663e-02 -1.286647552698263197e-01 1.447631326559674358e-01 -2.124597100596882851e-02 2.240854888990002902e-01 9.464005424121494162e-03 -1.077900298554008984e-01 2.117568888319844023e-01 -1.429597370174491046e-02 1.084129699534037011e-01 -2.851390834702058341e-01 1.558135945229515429e-01 6.968505123488284714e-02 2.612519803570990118e-01 -1.981538144238571744e-03 -1.048730358341784935e-01 -6.193440945722054058e-01 3.245840750443943490e-01 1.214921101928438246e-01 2.631488564322397306e-01 1.442004259205771077e-01 -1.276002455830880372e-02 -1.432597109696038817e-01 -1.810774008546609248e-01 2.811200527578925842e-02
6.399739408121012385e-01 -2.387452666974187454e-01 5.851408937632093243e-01 5.146500255247968836e-01 -6.592026326580632256e-01 8.919087770060528386e-02 -2.147505505518869373e-01 -3.702502049725765743e-02 3.508290264057965513e-01 4.117044442838800333e-01 -6.794378864733838230e-02 -1.797590615856326235e-01 -1.716407064972489960e-01 4.836011101433929649e-01 -3.532529383999559736e-01 -1.297567405079624869e-01 2.061730590291142029e-01 3.575480339888986725e-01 2.562098444277274845e-01 -6.934702724054839229e-02 8.696959538728191164e-03 -1.828109952617807121e-01 6.279033678083608683e-01 2.299110745121150379e-01 -8.380753996208389900e-02 1.430914541867332468e-01 3.061702273621205728e-02 5.851864565223940939e-01 -8.036031942638723058e-02 -3.135600862569293823e-01 -4.867771405810578655e-01 -9.443911107317090603e-02 -7.307594097538686051e-02 1.709382601922619371e-01 -6.061270778548604188e-01 2.183039288276104051e-01 1.478052121236625611e-02 -1.020673882977646968e-01 -3.091490100724311185e-01 5.285042222452663863e-01 -3.624508535708690360e-01 -2.389111007753185467e-01 -2.886026190961590854e-01 -5.465865362140551742e-01 3.839909962829318735e-01 -2.931202438231905183e-01 1.024841558693734556e-01 1.015320481167165945e-01 -9.855818299575530572e-02 4.025080616357230578e-01 -1.733739547793386737e-01 -5.648273456370664913e-01 6.450303904929653998e-01 -2.573618719664554910e-01 -3.146970112605125269e-01 -3.045555555548233317e-01 6.095101894467196135e-02 -2.648956894804798678e-01 4.397964266668152877e-01 -1.619399291211457148e-01 2.144090452974075078e-01 -1.879147083869671664e-01 -5.539780441086951113e-01 1.682122879292223885e-02 -3.702272999919214436e-01 9.643296848893537221e-02 -1.390569195425884474e-01 1.651519243368889389e-01 -1.042796797792277554e-02 2.478230713431653076e-01 9.784432514791845462e-03 -1.071970330718339387e-01 2.406173400545636720e-01 -1.528233314761030530e-05 1.074749671389423761e-01 -3.310847682394462699e-01 1.759281553651674823e-01 8.171905909664878287e-02 2.769227170663434712e-01 3.117685337092307874e-03 -1.195140375718800468e-01 -6.812763173929289318e-01 3.795020128802150672e-01 1.175941229840760244e-01 2.864176746375075022e-01 1.464136563283310044e-01 -3.516027561363578580e-03 -1.615949768626650795e-01 -2.052050972358938907e-01 3.558300587586798319e-02
7.144155972068273464e-01 -2.723635602536254585e-01 6.548298809443425794e-01 5.659406240323585635e-01 -7.384644173564833824e-01 9.889386444170396306e-02 -2.367246438153204346e-01 -4.174647345656955222e-02 4.163110290341220376e-01 4.443065989765018764e-01 -7.373052099068636012e-02 -1.943420664945596232e-01 -1.828595352575412281e-01 5.322733599080162747e-01 -3.907659330272118536e-01 -1.432341082257910236e-01 2.352191346154141882e-01 3.951000381214080370e-01 2.793153214982187493e-01 -7.727853183924503211e-02 1.013595575747285905e-02 -2.054330599040228023e-01 7.033541420032718428e-01 2.636240835551855732e-01 -9.037179685738271073e-02 1.599136990393386359e-01 2.600802496007314363e-02 6.566782126294418154e-01 -8.641152205681147669e-02 -3.526490964976751741e-01 -5.357898065300485957e-01 -1.099973583214572531e-01 -8.411493550965838673e-02 1.911817760701725044e-01 -6.789757868403640817e-01 2.368619203146910823e-01 5.319581401625492287e-04 -1.134990491311070743e-01 -3.293340090286329125e-01 5.782760619009650327e-01 -4.088029900894619151e-01 -2.822901112299657234e-01 -3.367236634959355213e-01 -6.015683677907336380e-01 4.078729985160437499e-01 -3.132442942873669978e-01 1.293825903830194968e-01 1.230120529874579038e-01 -1.118800968510487853e-01 4.318248771580340262e-01 -2.025289506466884937e-01 -6.142911312119169187e-01 7.189200491658785941e-01 -3.216358593809375277e-01 -3.511688432481658295e-01 -3.412852707139843456e-01 7.075202102715882901e-02 -2.928240714942071943e-01 4.951782452938532364e-01 -1.785269209370282939e-01 2.511723154477798481e-01 -2.187925876104055700e-01 -5.957860515657814604e-01 3.285703226827572238e-02 -4.118957709107636256e-01 1.084329630110199699e-01 -1.480642704317365332e-01 1.848453480587259889e-01 -1.929651938612576064e-04 2.694098348321589120e-01 9.627535162507952840e-03 -1.062300360322048082e-01 2.678962873987368321e-01 1.455711273906381241e-02 1.053619645634781554e-01 -3.744691215981360566e-01 1.944793360430062956e-01 9.283106648526566473e-02 2.912331805028453013e-01 8.643234478305941368e-03 -1.340100390901745875e-01 -7.381322588242122951e-01 4.339952735447833998e-01 1.127071350485614049e-01 3.078222666856686440e-01 1.473260712738726497e-01 5.597969587526541689e-03 -1.786777884831811658e-01 -2.273129314213176155e-01 4.303700646428518239e-02
-1.090909999999999935e-01 -5.571000000000000257e-02 2.329999999999999986e-04 -1.853399999999999839e-02 -6.914800000000000113e-02 7.901500000000000190e-02 2.753500000000000045e-02 6.352499999999999813e-02 -3.257700000000000179e-02 4.118000000000000133e-03 -8.961000000000000215e-03 -5.129100000000000326e-02 -6.593599999999999461e-02 -7.662900000000000267e-02 1.525680000000000092e-01 4.648100000000000148e-02 -2.196400000000000088e-02 1.226560000000000011e-01 4.018499999999999850e-02 -4.205500000000000210e-02 1.302149999999999974e-01 4.415899999999999687e-02 -8.607900000000000273e-02 3.171800000000000314e-02 -1.130410000000000026e-01 -9.259699999999999875e-02 1.516299999999999940e-02 2.264199999999999893e-02 -2.938500000000000140e-02 2.902700000000000072e-02 -1.160699999999999926e-02 4.913700000000000012e-02 1.332999999999999984e-03 1.849800000000000055e-02 -4.572600000000000275e-02 -5.161999999999999922e-03 1.129030000000000034e-01 -7.374999999999999611e-02 -3.115069999999999784e-01 3.333400000000000252e-02 1.540700000000000125e-01 1.805930000000000035e-01 5.874599999999999961e-02 8.213199999999999668e-02 2.115450000000000108e-01 -4.867199999999999999e-02 6.769300000000000317e-02 -1.320999999999999909e-03 3.928100000000000341e-02 1.506399999999999961e-01 -4.481999999999999873e-03 -1.165329999999999977e-01 1.636200000000000154e-02 1.500930000000000042e-01 9.560899999999999954e-02 -2.831399999999999889e-02 -1.547620000000000107e-01 2.768199999999999827e-02 8.905799999999999828e-02 -3.101699999999999943e-02 -1.054849999999999954e-01 1.049159999999999954e-01 -1.323400000000000132e-01 -2.998299999999999924e-02 2.454299999999999884e-02 5.242700000000000138e-02 7.040499999999999536e-02 1.008440000000000031e-01 2.226200000000000054e-02 7.539999999999999827e-03 -1.188290000000000041e-01 -9.217000000000000193e-02 -5.567899999999999933e-02 -2.317710000000000048e-01 -1.363640000000000130e-01 5.058499999999999802e-02 7.820799999999999974e-02 -7.587099999999999400e-02 9.325400000000000356e-02 6.918999999999999803e-03 1.171340000000000020e-01 -1.156620000000000009e-01 -2.311699999999999866e-02 5.761000000000000149e-02 2.738399999999999862e-02 1.243499999999999987e-02 -1.559919999999999918e-01 -2.953899999999999929e-02 1.681999999999999901e-03 -1.710200000000000053e-01
-7.640900000000000469e-02 -6.862400000000000444e-02 -4.287599999999999745e-02 -5.715100000000000041e-02 -6.796299999999999564e-02 7.810000000000000275e-02 3.730300000000000282e-02 3.450399999999999995e-02 -4.232699999999999657e-02 2.625600000000000156e-02 -4.028899999999999842e-02 -6.782499999999999640e-02 -5.725700000000000234e-02 -1.594579999999999886e-01 1.165550000000000058e-01 1.686700000000000005e-02 2.149099999999999969e-02 9.708300000000000263e-02 6.091599999999999793e-02 -3.285400000000000126e-02 9.651999999999999469e-02 4.293399999999999994e-02 -4.644299999999999817e-02 6.048100000000000004e-02 -8.089000000000000357e-02 -9.339000000000000079e-02 1.664799999999999960e-02 -5.383999999999999897e-03 -3.264500000000000041e-02 1.647900000000000059e-02 8.794000000000000428e-02 2.427299999999999944e-02 1.165099999999999990e-02 7.363999999999999713e-02 7.015000000000000402e-03 -1.945900000000000060e-02 6.154099999999999848e-02 -9.317100000000000382e-02 -3.294300000000000006e-01 2.579599999999999949e-02 1.146630000000000010e-01 1.479969999999999897e-01 5.044599999999999779e-02 1.464949999999999863e-01 2.073319999999999885e-01 -5.717900000000000066e-02 8.341600000000000403e-02 4.823000000000000030e-03 3.654799999999999716e-02 1.188540000000000013e-01 4.038300000000000223e-02 -1.848269999999999913e-01 4.327000000000000117e-03 1.655169999999999975e-01 1.013769999999999949e-01 1.956400000000000153e-02 -8.414499999999999758e-02 6.168499999999999678e-02 6.828399999999999748e-02 -2.814099999999999935e-02 -1.654970000000000052e-01 7.034400000000000375e-02 -1.413860000000000117e-01 -3.203700000000000297e-02 1.948199999999999932e-02 6.028900000000000231e-02 -7.330999999999999843e-03 1.029960000000000042e-01 2.440399999999999861e-02 1.341499999999999984e-02 -9.895500000000000129e-02 -9.016000000000000403e-02 -6.128100000000000214e-02 -2.098990000000000022e-01 -1.086300000000000043e-01 8.877799999999999581e-02 7.459200000000000552e-02 -8.846199999999999897e-02 6.690300000000000413e-02 5.888600000000000084e-02 1.214609999999999995e-01 -1.054979999999999946e-01 -3.065500000000000169e-02 8.385599999999999998e-02 5.450499999999999790e-02 2.580999999999999961e-03 -1.311329999999999996e-01 -1.474600000000000043e-02 2.080999999999999951e-03 -1.776449999999999974e-01
-4.488600000000000229e-02 -8.054799999999999460e-02 -8.705499999999999350e-02 -9.596799999999999775e-02 -6.551300000000000179e-02 7.702900000000000025e-02 4.637899999999999662e-02 4.120000000000000398e-03 -5.017200000000000132e-02 4.855899999999999800e-02 -7.216500000000000692e-02 -8.501599999999999435e-02 -4.911999999999999700e-02 -2.406929999999999903e-01 7.775999999999999579e-02 -1.284700000000000078e-02 6.597100000000000186e-02 7.043499999999999761e-02 8.098700000000000343e-02 -2.296700000000000130e-02 6.149099999999999705e-02 4.127299999999999719e-02 -5.408999999999999746e-03 8.967899999999999483e-02 -4.951599999999999752e-02 -9.351700000000000290e-02 1.829499999999999876e-02 -3.393199999999999689e-02 -3.618699999999999695e-02 4.756999999999999944e-03 1.909250000000000114e-01 3.359999999999999814e-04 2.126600000000000018e-02 1.280100000000000127e-01 6.091400000000000287e-02 -3.422100000000000142e-02 1.109800000000000023e-02 -1.131729999999999958e-01 -3.466259999999999897e-01 1.871400000000000147e-02 7.380799999999999861e-02 1.144820000000000004e-01 4.268099999999999672e-02 2.088160000000000016e-01 2.022239999999999871e-01 -6.507499999999999396e-02 9.862700000000000633e-02 1.084899999999999927e-02 3.357600000000000168e-02 8.572899999999999965e-02 8.571900000000000353e-02 -2.504370000000000207e-01 -8.356000000000000580e-03 1.792310000000000014e-01 1.057680000000000009e-01 6.731499999999999984e-02 -1.048200000000000000e-02 9.535200000000000620e-02 4.748700000000000143e-02 -2.581500000000000114e-02 -2.283979999999999899e-01 3.432199999999999834e-02 -1.494340000000000113e-01 -3.446599999999999664e-02 1.410999999999999928e-02 6.670900000000000440e-02 -8.351000000000000090e-02 1.047619999999999940e-01 2.675599999999999853e-02 1.990600000000000008e-02 -7.758700000000000319e-02 -8.802000000000000102e-02 -6.647999999999999743e-02 -1.875719999999999887e-01 -7.954700000000000659e-02 1.269720000000000015e-01 7.056999999999999384e-02 -1.013460000000000055e-01 4.102000000000000091e-02 1.092029999999999945e-01 1.251480000000000092e-01 -9.546200000000000518e-02 -3.806699999999999667e-02 1.109089999999999937e-01 8.102800000000000280e-02 -6.317999999999999831e-03 -1.050559999999999966e-01 -2.700000000000000035e-04 2.991000000000000169e-03 -1.840890000000000026e-01