4.576870000000000105e-01 -9.542499999999999594e-02 -2.026179999999999926e-01 2.414300000000000057e-01 -2.971999999999999816e-03 4.446849999999999969e-01 8.470069999999999544e-01 4.487019999999999897e-01 -5.125480000000000036e-01 8.610929999999999973e-01 1.543289999999999940e-01 6.345420000000000504e-01 9.500400000000000511e-02 2.665819999999999856e-01 5.080209999999999448e-01 3.043399999999999994e-01 4.067350000000000132e-01 -1.275920000000000110e-01 -1.123351999999999906e+00 -1.131733000000000100e+00 -1.366610000000000047e-01 -5.264149999999999663e-01 -9.019669999999999632e-01 -2.547845000000000137e+00 -4.987130000000000174e-01 -4.092850000000000099e-01 -5.155200000000000060e-02 -8.349410000000000442e-01 1.120450000000000057e-01 2.339150000000000118e-01 -9.296649999999999636e-01 2.749050000000000105e-01 -4.103040000000000020e-01 4.472700000000000287e-02 -2.865280000000000049e-01 1.099190000000000028e-01 -1.043012999999999968e+00 -6.108100000000000335e-02 -3.361350000000000171e-01 6.057719999999999771e-01 -2.280409999999999937e-01 9.836260000000000003e-01 6.004460000000000353e-01 2.989100000000000090e-01 2.398299999999999876e-01 1.572629999999999861e-01 -2.313800000000000023e-01 -5.191500000000000004e-01 -6.874259999999999815e-01 -5.317490000000000272e-01 -5.971980000000000066e-01 8.760850000000000026e-01 -5.783499999999999752e-02 -1.001179999999999987e-01 7.278729999999999922e-01 1.139510999999999941e+00 4.117100000000000204e-01 -1.752019999999999966e-01 8.362749999999999906e-01 1.975473999999999952e+00
-1.967480000000000062e-01 1.765950000000000020e-01 -2.685681999999999903e+00 -5.772900000000000253e-02 -4.330030000000000268e-01 -8.373899999999999400e-02 -4.139999999999999583e-03 1.900799999999999990e-01 7.834959999999999702e-01 -3.054689999999999905e-01 -3.814299999999999913e-01 -7.101119999999999655e-01 -7.338300000000000378e-02 -1.822753000000000068e+00 6.684769999999999879e-01 7.904200000000000115e-02 4.291490000000000027e-01 6.149149999999999894e-01 2.439119999999999899e-01 5.973500000000000337e-02 3.630380000000000273e-01 -4.094360000000000221e-01 1.293169999999999875e-01 3.967970000000000108e-01 9.348269999999999635e-01 -9.568170000000000286e-01 5.016260000000000163e-01 -4.013220000000000121e-01 1.244907999999999904e+00 -1.644269999999999898e-01 -1.194868000000000041e+00 -2.858240000000000225e-01 4.048990000000000089e-01 6.713630000000000431e-01 2.663699999999999957e-01 4.135869999999999824e-01 1.909019999999999884e-01 6.942070000000000185e-01 1.946490000000000054e+00 1.641300000000000051e-02 1.696423999999999932e+00 -2.129643000000000175e+00 6.549499999999999766e-02 -4.625529999999999919e-01 6.616000000000000353e-03 -2.979589999999999739e-01 -3.528470000000000217e-01 6.984470000000000400e-01 3.160500000000000115e-02 -3.888869999999999827e-01 -5.967740000000000267e-01 4.141239999999999921e-01 5.197899999999999743e-02 -6.351780000000000204e-01 4.256800000000000167e-02 4.337400000000000283e-02 2.106939999999999924e-01 2.508029999999999982e-01 1.019739999999999952e-01 -3.524999999999999922e-03
-4.830619999999999914e-01 2.713749999999999774e-01 3.190169999999999950e-01 -7.879519999999999857e-01 -3.439329999999999887e-01 1.281914999999999916e+00 -7.329849999999999977e-01 5.997400000000000508e-01 -7.131370000000000209e-01 -1.890999999999999973e-02 -1.699859999999999982e-01 2.344110000000000082e-01 8.669829999999999481e-01 -1.694249999999999923e-01 6.429089999999999527e-01 -1.880899999999999933e-02 -3.044099999999999931e-02 -2.094940000000000135e-01 8.942820000000000213e-01 -1.572540000000000049e-01 -3.501369999999999760e-01 -1.221473999999999949e+00 1.496520999999999990e+00 -6.413959999999999662e-01 9.233120000000000216e-01 1.428599999999999870e-01 -2.652769999999999850e-01 1.833609999999999962e-01 -1.189260000000000039e-01 7.039999999999999591e-01 8.777369999999999894e-01 3.309139999999999859e-01 1.124259999999999982e-01 4.747359999999999913e-01 -3.884179999999999855e-01 -4.399129999999999985e-01 -7.663999999999999979e-02 -1.269805000000000073e+00 -9.377910000000000412e-01 7.449099999999999611e-01 -7.788370000000000015e-01 -1.061436000000000046e+00 -9.928639999999999688e-01 4.995740000000000181e-01 5.614019999999999566e-01 2.246650000000000036e-01 2.058270000000000099e-01 -4.725699999999999901e-01 -1.631779999999999897e-01 -9.159640000000000004e-01 -6.299999999999999990e-05 -5.311129999999999463e-01 2.192260000000000042e-01 3.149569999999999870e-01 -7.999499999999999666e-02 5.094079999999999719e-01 1.911500000000000005e-02 -8.300200000000000633e-02 6.754200000000000481e-02 9.010620000000000296e-01
-3.137840000000000074e-01 -6.048510000000000275e-01 -6.363159999999999927e-01 5.906850000000000156e-01 6.682200000000000639e-02 1.079933000000000032e+00 6.358300000000000063e-02 5.555499999999999883e-01 3.057150000000000145e-01 -5.529200000000000087e-02 4.788220000000000254e-01 3.573819999999999775e-01 1.174999999999999933e-01 -1.220526999999999918e+00 1.019430999999999976e+00 -2.386399999999999910e-01 9.379079999999999639e-01 -2.293080000000000118e-01 -4.451320000000000277e-01 -2.523599999999999732e-01 1.306705000000000005e+00 -2.572200000000000042e-01 4.790090000000000181e-01 -2.815079999999999805e-01 4.247440000000000104e-01 4.714559999999999862e-01 -6.387400000000000022e-02 2.093740000000000046e-01 -3.379360000000000142e-01 -1.577999999999999976e-03 -3.407499999999999973e-01 2.104659999999999864e-01 -1.962999999999999901e-03 -4.401590000000000225e-01 -2.712129999999999819e-01 -2.111069999999999891e-01 6.276899999999999702e-01 9.077899999999999858e-01 7.478500000000000425e-02 4.826600000000000334e-02 -8.689759999999999707e-01 -1.031684999999999963e+00 -4.187000000000000166e-01 2.602130000000000276e-01 -7.759519999999999751e-01 -4.630839999999999956e-01 1.104789999999999939e-01 -1.016289999999999971e-01 3.627900000000000014e-01 -2.639070000000000027e-01 -2.173239999999999894e-01 8.548099999999999588e-01 -7.108699999999999741e-02 -3.432189999999999963e-01 4.944859999999999811e-01 -2.918620000000000103e-01 -5.043020000000000280e-01 -8.211659999999999515e-01 -2.957949999999999746e-01 2.558139999999999858e-01
-2.225429999999999908e-01 -2.360420000000000018e-01 -1.423470000000000013e-01 -2.734639999999999849e-01 3.325469999999999815e-01 2.528700000000000045e-02 1.358570000000000055e-01 -1.360292999999999974e+00 3.301339999999999830e-01 -1.277969999999999939e-01 -1.427980000000000027e+00 9.412279999999999536e-01 2.556550000000000211e-01 1.829320000000000113e-01 2.940240000000000076e-01 4.880299999999999916e-02 -3.339670000000000138e-01 1.239309999999999995e-01 -2.125039999999999984e-01 4.393400000000000083e-02 6.111389999999999878e-01 6.011699999999999683e-02 2.983500000000000041e-01 -1.495230999999999977e+00 -2.100970000000000060e-01 1.598270000000000080e+00 -7.556680000000000064e-01 3.942400000000000071e-02 7.654539999999999678e-01 -4.549549999999999983e-01 7.335730000000000306e-01 -3.002290000000000236e-01 -5.267490000000000228e-01 6.416880000000000361e-01 1.835110000000000074e-01 -5.075180000000000247e-01 -2.172400000000000025e-02 -2.691640000000000144e-01 -1.168170000000000042e-01 5.966199999999999976e-02 5.820100000000000273e-02 -7.964599999999999458e-02 -2.805050000000000043e-01 6.383760000000000545e-01 -2.080980000000000052e-01 -6.495560000000000223e-01 -4.391720000000000068e-01 -1.059134000000000020e+00 4.131599999999999856e-02 -7.594180000000000375e-01 4.723499999999999921e-01 -7.662550000000000194e-01 -3.185450000000000226e-01 6.515200000000000158e-02 3.163909999999999778e-01 9.030470000000000441e-01 7.516030000000000211e-01 4.319600000000000106e-01 4.401860000000000217e-01 1.731314000000000020e+00
-6.071109999999999562e-01 7.142429999999999612e-01 -3.661099999999999771e-02 -6.866510000000000113e-01 7.911569999999999991e-01 1.208736999999999950e+00 -2.570589999999999820e-01 -6.029449999999999532e-01 6.691610000000000058e-01 -4.666370000000000240e-01 3.111479999999999801e-01 9.100650000000000128e-01 -1.770218000000000069e+00 -2.740400000000000127e-02 3.000999999999999779e-01 4.936579999999999857e-01 -8.944170000000000176e-01 -5.752540000000000431e-01 -1.106520000000000004e-01 3.095640000000000058e-01 -2.538119999999999821e-01 -4.604619999999999824e-01 -5.808999999999999719e-01 3.736470000000000069e-01 -1.959999999999999937e-04 -4.103570000000000273e-01 4.239700000000000135e-01 3.909290000000000265e-01 1.620310000000000084e-01 -6.574670000000000236e-01 2.328109999999999902e-01 2.566000000000000138e-03 1.110795999999999895e+00 1.694695999999999980e+00 -1.327364999999999906e+00 -9.193459999999999965e-01 1.084756000000000054e+00 -8.753819999999999935e-01 -4.421419999999999795e-01 2.577709999999999724e-01 1.097982999999999931e+00 -3.247940000000000271e-01 -1.665300000000000114e-01 2.124699999999999922e-01 -1.270939000000000041e+00 -4.864970000000000128e-01 3.128319999999999990e-01 -2.171210000000000084e-01 -1.204399999999999915e-02 -2.318500000000000075e-02 -8.350739999999999830e-01 -8.342460000000000431e-01 2.056749999999999967e-01 1.231199999999999933e-01 8.329199999999999937e-01 -2.949760000000000160e-01 -2.874570000000000181e-01 8.707620000000000360e-01 9.172620000000000218e-01 7.004190000000000138e-01
3.699299999999999811e-02 -1.747940000000000049e-01 6.520880000000000010e-01 7.240900000000000114e-02 -1.369940000000000047e-01 4.882230000000000181e-01 -2.319549999999999945e-01 -6.371329999999999494e-01 4.031139999999999723e-01 -1.709380000000000066e-01 -3.417939999999999867e-01 -1.984400000000000053e-01 2.705600000000000019e-02 -6.518799999999999595e-02 2.027259999999999895e-01 7.343099999999999627e-02 -1.213439999999999935e-01 4.586169999999999969e-01 3.408939999999999748e-01 8.817700000000000538e-02 -2.086040000000000116e-01 -2.029769999999999908e-01 -1.542610000000000092e-01 -3.005840000000000178e-01 -2.006000000000000144e-02 4.413730000000000153e-01 -5.066880000000000273e-01 1.431890000000000107e-01 3.336819999999999786e-01 -5.566609999999999614e-01 1.605520000000000003e-01 3.216049999999999742e-01 -4.948960000000000026e-01 9.095899999999999819e-02 2.952509999999999857e-01 -5.512629999999999475e-01 -3.644890000000000074e-01 4.120949999999999891e-01 -4.663050000000000250e-01 6.431900000000000117e-02 -1.425740000000000063e-01 3.627409999999999801e-01 6.578399999999999526e-02 -6.814800000000000024e-02 1.006520000000000054e-01 -1.820670000000000066e-01 2.024380000000000068e-01 2.413549999999999862e-01 1.702909999999999979e-01 2.880429999999999935e-01 4.055920000000000081e-01 6.772580000000000267e-01 9.623600000000000210e-02 -3.668440000000000034e-01 1.190149999999999958e-01 -6.961850000000000538e-01 3.678569999999999895e-01 -8.696629999999999638e-01 5.951700000000000046e-02 -3.268000000000000071e-02
-3.656829999999999803e-01 5.050000000000000235e-04 2.832979999999999943e-01 -1.363280000000000047e-01 -6.176000000000000066e-03 -4.364250000000000074e-01 -3.207149999999999723e-01 3.610220000000000096e-01 4.716770000000000129e-01 1.268040000000000000e-01 5.940800000000000247e-02 5.013030000000000541e-01 5.674449999999999772e-01 -3.245899999999999896e-01 1.035673999999999984e+00 -1.442869999999999986e-01 1.516369999999999940e-01 9.324750000000000538e-01 -3.613089999999999913e-01 -6.117369999999999752e-01 2.235499999999999987e-01 3.041019999999999834e-01 4.081739999999999813e-01 7.277299999999999880e-01 4.144660000000000011e-01 -2.333540000000000059e-01 -3.356750000000000012e-01 2.211100000000000010e-01 -1.018649999999999972e-01 7.522399999999999920e-02 2.748599999999999932e-01 -3.415420000000000122e-01 1.349799999999999958e-02 -3.283389999999999920e-01 4.170189999999999730e-01 -5.161590000000000344e-01 -8.182499999999999496e-02 -7.428240000000000398e-01 -1.840720000000000134e-01 -2.999379999999999824e-01 6.622470000000000301e-01 6.056850000000000289e-01 2.090519999999999878e-01 3.764310000000000156e-01 -2.193629000000000051e+00 -2.000760000000000038e-01 2.852100000000000121e-02 -3.171070000000000277e-01 4.086620000000000252e-01 6.284650000000000514e-01 -8.654330000000000078e-01 -9.664070000000000160e-01 5.059820000000000428e-01 -3.520190000000000263e-01 -7.103399999999999992e-02 4.366699999999999748e-02 2.354100000000000081e-01 7.494420000000000526e-01 -1.280991999999999909e+00 9.499299999999999411e-02
1.521913999999999989e+00 4.703899999999999748e-01 1.123210000000000042e+00 1.591889999999999972e-01 2.199200000000000044e-01 7.617089999999999694e-01 -9.059040000000000425e-01 7.898100000000000120e-01 9.952239999999999975e-01 6.890840000000000298e-01 -6.678199999999999414e-02 1.644019999999999926e-01 -7.387839999999999963e-01 1.084718999999999989e+00 1.250769000000000020e+00 1.719600000000000017e-01 -1.044920000000000015e-01 1.494000000000000102e-03 -4.740170000000000217e-01 -4.635090000000000043e-01 -3.253730000000000233e-01 -6.700720000000000010e-01 -6.238099999999999895e-02 -6.755809999999999871e-01 -8.930000000000000160e-01 -7.107759999999999634e-01 -7.945659999999999945e-01 -4.262119999999999798e-01 -1.709410000000000096e-01 6.662270000000000136e-01 -9.672000000000000042e-03 3.991169999999999995e-01 7.946140000000000425e-01 -3.207699999999999996e-01 -6.577600000000000113e-01 -5.130259999999999820e-01 5.867210000000000480e-01 6.418690000000000229e-01 -8.750090000000000368e-01 -2.158770000000000133e-01 -4.391930000000000001e-01 -1.011983000000000077e+00 4.148249999999999993e-01 -2.403180000000000038e-01 -1.393958000000000030e+00 2.627709999999999768e-01 -9.100160000000000471e-01 -3.520530000000000048e-01 3.473209999999999908e-01 8.879070000000000018e-01 2.716100000000000111e-02 4.878419999999999979e-01 -7.987020000000000231e-01 -3.523479999999999945e-01 -5.314309999999999867e-01 4.701600000000000223e-01 -3.593430000000000235e-01 5.441120000000000401e-01 -3.390210000000000168e-01 8.684290000000000065e-01
4.963819999999999899e-01 1.011725999999999903e+00 1.020011000000000001e+00 1.745724000000000053e+00 1.030429000000000039e+00 -3.531770000000000187e-01 4.148069999999999813e-01 -6.806999999999999683e-03 2.631089999999999818e-01 1.519909999999999872e-01 2.882239999999999802e-01 -1.396860000000000046e-01 -5.473499999999999893e-02 5.541800000000000059e-01 9.529480000000000173e-01 -3.743830000000000213e-01 7.697199999999999875e-02 -5.743300000000000072e-01 -8.657569999999999988e-01 -1.908469999999999889e-01 -3.556699999999999862e-01 5.872000000000000136e-02 -1.142549999999999955e+00 -6.795700000000000074e-01 -1.315636999999999945e+00 -1.726499999999999979e-01 -2.061919999999999864e-01 -2.245833000000000190e+00 -1.415059999999999985e+00 -9.313379999999999992e-01 -1.600050000000000083e-01 -1.926800000000000040e-02 1.716530000000000000e-01 -1.389600000000000037e-02 -8.622450000000000392e-01 -1.473109999999999975e-01 4.354979999999999962e-01 6.039970000000000061e-01 -8.547599999999999643e-01 -1.334819999999999895e-01 1.132510000000000044e-01 1.409920999999999980e+00 1.514347000000000110e+00 5.757349999999999968e-01 -1.608935999999999922e+00 3.163880000000000026e-01 -1.030723000000000056e+00 1.496319999999999872e-01 1.550064000000000108e+00 5.520100000000000007e-01 1.476449999999999985e-01 -3.470349999999999824e-01 6.025610000000000133e-01 3.402810000000000001e-01 -1.506250000000000089e-01 -1.111977999999999911e+00 4.486189999999999900e-01 -1.022532999999999914e+00 5.430420000000000247e-01 9.471519999999999939e-01
-1.014489999999999975e-01 -3.278969999999999940e-01 1.523029999999999939e-01 3.255509999999999793e-01 2.576120000000000076e-01 1.329519999999999869e-01 5.277410000000000156e-01 -1.145499999999999990e-01 3.227309999999999901e-01 4.620219999999999883e-01 1.931910000000000016e-01 3.630490000000000106e-01 5.758910000000000418e-01 -1.915650000000000130e-01 -9.024500000000000577e-02 -1.514999999999999958e-01 2.806640000000000246e-01 -1.645429999999999948e-01 -3.853889999999999816e-01 -6.582130000000000480e-01 3.386930000000000218e-01 -6.178829999999999600e-01 -7.936530000000000529e-01 1.144339999999999941e-01 2.076729999999999965e-01 4.412369999999999903e-01 3.199040000000000217e-01 -1.672170000000000045e-01 2.837339999999999862e-01 -3.352800000000000225e-02 -4.212629999999999986e-01 -1.893269999999999953e-01 -5.579100000000000031e-02 -3.751650000000000262e-01 -3.462509999999999755e-01 -5.673600000000000171e-02 -1.017269999999999897e+00 7.649869999999999726e-01 -7.069870000000000321e-01 -1.323200000000000071e-02 -2.009640000000000037e-01 -5.365889999999999826e-01 7.016869999999999497e-01 6.043070000000000386e-01 -2.430920000000000025e-01 8.103139999999999787e-01 8.596299999999999775e-02 -4.908790000000000098e-01 1.188720000000000054e-01 -5.975199999999999956e-02 -3.107329999999999814e-01 -6.215299999999999991e-02 3.444400000000000239e-02 -1.246030000000000054e-01 -4.274720000000000186e-01 -2.430539999999999923e-01 7.399210000000000509e-01 1.024100000000000010e-02 1.790869999999999962e-01 3.297399999999999776e-01
-1.496699999999999975e-01 -1.125250000000000000e-01 -1.457209999999999894e-01 -1.995999999999999858e-02 2.885949999999999904e-01 8.028499999999999526e-01 3.123380000000000045e-01 3.293200000000000294e-02 5.023099999999999787e-02 2.414880000000000082e-01 -8.506800000000000472e-02 -1.441141999999999923e+00 2.609879999999999978e-01 -1.139934000000000003e+00 -5.182290000000000507e-01 -5.307279999999999776e-01 -4.328799999999999870e-01 3.993769999999999820e-01 3.027039999999999731e-01 1.031800000000000078e-02 -3.124230000000000063e-01 -3.854899999999999993e-02 6.505099999999999771e-02 -1.649660000000000015e-01 -1.794900000000000106e-01 6.868699999999999806e-01 -3.372319999999999762e-01 1.593970000000000109e-01 -6.109569999999999723e-01 -4.675110000000000099e-01 -1.198980000000000046e-01 3.163179999999999881e-01 -1.090730000000000033e-01 -6.534879999999999578e-01 -5.234469999999999956e-01 -6.374509999999999899e-01 2.878970000000000140e-01 -4.058550000000000213e-01 3.822269999999999834e-01 4.759559999999999902e-01 2.200479999999999936e-01 -6.975240000000000329e-01 -7.435300000000000242e-02 1.081629999999999953e-01 5.490089999999999693e-01 1.681149999999999867e-01 -8.539499999999999869e-02 1.986512999999999973e+00 3.052460000000000173e-01 7.447070000000000078e-01 5.950790000000000246e-01 -6.415920000000000512e-01 1.193497999999999948e+00 3.424719999999999986e-01 1.701421999999999990e+00 -2.126815000000000122e+00 2.100000000000000130e-02 -1.807822000000000040e+00 1.856376000000000026e+00 -2.974849999999999994e-01
2.413959999999999995e-01 -3.098929999999999740e-01 5.384940000000000282e-01 2.914280000000000204e-01 -2.412500000000000061e-02 9.996070000000000233e-01 -2.041119999999999879e-01 -1.273630000000000040e-01 -9.260690000000000310e-01 -1.996729999999999894e-01 -3.498500000000000221e-02 2.601720000000000144e-01 2.389320000000000055e-01 6.639509999999999579e-01 1.176128999999999980e+00 4.156130000000000102e-01 -6.565999999999999615e-02 -1.921480000000000132e-01 1.538629999999999998e-01 4.342670000000000141e-01 -9.667369999999999575e-01 -2.579270000000000174e-01 -1.450740000000000085e-01 1.194390000000000035e-01 -1.292010000000000103e-01 2.618570000000000064e-01 -4.408600000000000019e-02 -3.477640000000000176e-01 -3.575329999999999897e-01 3.376549999999999829e-01 -1.046340000000000048e-01 1.955439999999999956e-01 1.215799999999999936e-01 1.219719999999999971e-01 2.924240000000000173e-01 2.133799999999999933e-02 -4.007000000000000145e-03 -3.606360000000000121e-01 -2.610799999999999788e-01 8.914700000000000402e-02 -2.978410000000000224e-01 -1.131544000000000105e+00 -2.391280000000000072e-01 3.190270000000000050e-01 3.626639999999999864e-01 1.094109999999999944e-01 -7.160469999999999891e-01 -4.220579999999999887e-01 -6.065840000000000121e-01 -2.006979999999999875e-01 -7.623539999999999761e-01 -1.985790000000000055e-01 5.575560000000000516e-01 -2.184840000000000115e-01 8.796500000000000152e-02 6.251130000000000297e-01 9.452439999999999731e-01 5.418830000000000036e-01 -7.098839999999999595e-01 4.223799999999999777e-02
-1.326620000000000021e-01 -3.243100000000000149e-02 -4.025569999999999982e-01 -3.949360000000000093e-01 5.192099999999999493e-01 8.886900000000000355e-02 2.526519999999999877e-01 -1.241622000000000003e+00 6.252090000000000147e-01 -5.800969999999999738e-01 2.794650000000000190e-01 1.493639999999999968e-01 1.026700000000000008e-02 1.905600000000000002e-02 5.177469999999999573e-01 1.141061000000000103e+00 -5.112069999999999670e-01 -1.977230000000000099e-01 2.068639999999999923e-01 -1.073839999999999933e-01 5.333100000000000340e-02 -1.166384000000000087e+00 4.868879999999999875e-01 -3.700300000000000117e-02 -2.889849999999999919e-01 1.996169999999999889e-01 -5.371100000000000180e-02 8.576650000000000107e-01 7.653510000000000035e-01 -8.989470000000000516e-01 -3.290300000000000169e-02 -4.481700000000000128e-01 -6.297300000000000120e-02 1.875100000000000100e-01 -1.439560000000000006e-01 -3.604809999999999959e-01 -4.440310000000000090e-01 -1.534139999999999948e-01 5.617870000000000363e-01 -2.233439999999999870e-01 -4.753580000000000028e-01 5.693279999999999452e-01 3.533209999999999962e-01 2.623940000000000161e-01 2.492199999999999971e-01 -7.153099999999999736e-02 3.417370000000000130e-01 7.633060000000000400e-01 1.165130000000000055e-01 1.780421999999999949e+00 -3.910660000000000247e-01 4.919789999999999996e-01 -1.337190000000000045e-01 2.290200000000000014e-01 -1.905540000000000012e-01 -1.899609000000000103e+00 -1.072805999999999926e+00 -9.240500000000000103e-02 4.927309999999999746e-01 -3.299159999999999870e-01
1.253540000000000099e+00 1.641666999999999987e+00 1.038102000000000080e+00 1.853178999999999910e+00 6.480010000000000492e-01 9.030460000000000154e-01 3.382220000000000226e-01 5.508809999999999540e-01 -3.017000000000000150e-03 3.632750000000000146e-01 -1.088140000000000107e+00 2.864200000000000079e-01 7.467629999999999546e-01 -3.851919999999999789e-01 6.473919999999999675e-01 1.311289999999999956e-01 -1.833470000000000100e-01 -6.644300000000000206e-02 9.621880000000000432e-01 1.749020000000000019e-01 -3.800220000000000264e-01 -2.090509999999999868e-01 2.800529999999999964e-01 -8.841499999999999360e-02 -1.469411000000000023e+00 -4.431700000000000084e-01 -7.702419999999999822e-01 -2.281455999999999928e+00 -1.180420000000000025e+00 -6.769220000000000237e-01 5.406429999999999847e-01 -5.345060000000000366e-01 1.692480000000000095e-01 1.628840000000000010e-01 2.356020000000000059e-01 4.080349999999999810e-01 -3.007779999999999898e-01 -1.028209999999999957e-01 1.730250000000000121e-01 -3.135399999999999993e-02 7.547199999999999465e-01 -3.424570000000000114e-01 -7.548550000000000537e-01 -7.603980000000000183e-01 1.959249999999999881e-01 -3.073310000000000208e-01 1.133480000000000043e-01 -7.343150000000000510e-01 3.768799999999999928e-02 -1.058469999999999966e-01 -8.409029999999999561e-01 4.762719999999999732e-01 1.854355999999999893e+00 2.829300000000000148e-01 -9.085339999999999527e-01 -1.012801000000000062e+00 1.625599999999999962e-02 -6.030130000000000212e-01 -4.568889999999999896e-01 -2.176430000000000031e-01
-2.823450000000000126e-01 9.123780000000000223e-01 -2.919953000000000021e+00 2.233799999999999952e-01 1.278920000000000057e-01 -1.552556000000000047e+00 -4.470189999999999997e-01 -1.031044999999999989e+00 5.073079999999999812e-01 -3.276600000000000068e-01 9.242100000000000315e-02 2.214299999999999949e-02 1.022150000000000003e-01 -2.436439999999999995e-01 -1.255038000000000098e+00 -2.867069999999999896e-01 -1.623960000000000126e-01 2.386230000000000018e-01 -1.952500000000000069e-02 2.084599999999999995e-02 3.476009999999999933e-01 7.038969999999999949e-01 5.731220000000000203e-01 1.138751000000000069e+00 -3.578939999999999899e-01 9.395689999999999875e-01 -2.315099999999999936e-01 1.750780000000000114e-01 4.624949999999999894e-01 -1.504290000000000072e-01 8.397829999999999462e-01 -9.006530000000000369e-01 -3.278880000000000128e-01 -1.747789999999999899e-01 6.198000000000000384e-03 4.623550000000000160e-01 1.282870000000000121e-01 -2.379670000000000119e-01 3.220635999999999832e+00 -3.814270000000000160e-01 -2.972719999999999807e-01 5.256049999999999889e-01 6.442199999999999316e-02 -3.694709999999999939e-01 -2.498299999999999965e-01 -3.746300000000000324e-02 -2.198219999999999896e-01 4.777810000000000112e-01 -6.540559999999999707e-01 -3.759660000000000224e-01 4.018680000000000030e-01 -2.383419999999999983e-01 5.265809999999999658e-01 -6.467110000000000358e-01 8.397399999999999309e-02 1.025080000000000019e-01 -1.858130000000000059e-01 8.861799999999999677e-01 7.422800000000000231e-02 1.770569999999999922e-01
3.720769999999999911e-01 -1.758740000000000026e-01 1.842060000000000086e-01 1.312740000000000018e+00 7.493769999999999598e-01 8.294620000000000326e-01 3.184679999999999733e-01 -6.114359999999999795e-01 -4.156250000000000222e-01 -7.487780000000000546e-01 7.433079999999999687e-01 4.058579999999999965e-01 -4.446800000000000058e-02 4.734380000000000255e-01 -1.645548000000000011e+00 4.250000000000000305e-02 4.481199999999999767e-02 -1.673669999999999880e-01 -8.464850000000000430e-01 6.552050000000000374e-01 -2.341930000000000123e-01 1.917109999999999925e-01 1.864184000000000063e+00 -1.305089999999999861e-01 -9.570600000000000218e-01 -1.203219999999999956e+00 -1.841500000000000081e-01 -1.001395999999999953e+00 -6.042530000000000401e-01 2.118420000000000025e-01 4.124090000000000256e-01 9.769100000000000006e-02 2.988669999999999938e-01 5.513149999999999995e-01 9.558790000000000342e-01 -6.357059999999999933e-01 -2.215070000000000094e-01 -2.335529999999999884e+00 2.659909999999999775e-01 1.070099999999999940e-01 -2.445610000000000006e-01 -1.942329999999999890e-01 6.341959999999999820e-01 -2.920320000000000138e-01 4.709240000000000093e-01 -2.361650000000000138e-01 7.493229999999999613e-01 -3.057230000000000225e-01 -2.003800000000000026e-01 -6.279839999999999867e-01 9.774119999999999475e-01 -1.171564999999999968e+00 1.792631000000000085e+00 1.238016999999999923e+00 2.870949999999999891e-01 -3.060669999999999780e-01 4.222069999999999990e-01 1.198282000000000069e+00 -1.724890999999999952e+00 -1.391731999999999969e+00
7.828499999999999348e-02 2.767199999999999868e-02 -5.148800000000000043e-01 -5.252379999999999827e-01 4.411700000000000343e-02 1.021903999999999924e+00 6.053800000000000153e-02 8.602700000000000624e-02 9.115099999999999592e-02 4.771150000000000113e-01 -7.442999999999999963e-03 4.221309999999999785e-01 1.806919999999999915e-01 4.552899999999999725e-01 2.541479999999999850e-01 -1.218863000000000030e+00 -4.869029999999999747e-01 -3.086189999999999767e-01 4.788499999999999701e-02 -1.111971000000000043e+00 -4.571379999999999888e-01 -1.302219000000000015e+00 9.952959999999999585e-01 -6.292940000000000200e-01 2.571339999999999737e-01 1.921670000000000045e-01 4.350069999999999770e-01 -3.524490000000000123e-01 -7.237679999999999669e-01 1.454100000000000011e-02 -3.121439999999999770e-01 5.930189999999999628e-01 4.673769999999999869e-01 3.862780000000000102e-01 -3.242249999999999854e-01 1.689600000000000130e-02 -7.946689999999999587e-01 -3.161519999999999886e-01 4.222670000000000035e-01 6.074370000000000047e-01 6.243490000000000428e-01 -1.155745000000000022e+00 2.496009999999999895e-01 -2.151029999999999887e-01 -6.483959999999999724e-01 4.188540000000000041e-01 -1.020100000000000035e-01 -7.251900000000000013e-01 1.023379999999999984e-01 1.087568000000000090e+00 1.360580000000000123e-01 1.370419999999999972e-01 -2.233249999999999957e-01 2.830869999999999775e-01 -3.043040000000000189e-01 -2.126470000000000027e-01 -4.022270000000000012e-01 1.806685000000000096e+00 -3.819589999999999930e-01 1.276920999999999973e+00
-1.864400000000000085e-02 -5.581509999999999527e-01 -2.728869999999999907e-01 -2.229389999999999983e-01 3.780000000000000265e-04 -6.663940000000000419e-01 3.490210000000000257e-01 2.528929999999999789e-01 -1.692957999999999963e+00 3.981999999999999984e-01 3.944179999999999908e-01 -1.879039999999999877e-01 -3.014379999999999837e-01 7.567439999999999722e-01 -1.201359999999999983e+00 -2.807589999999999808e-01 -3.090400000000000091e-02 -1.060681999999999903e+00 -7.266519999999999646e-01 2.467630000000000101e-01 -4.477169999999999761e-01 -1.019673999999999969e+00 4.467510000000000092e-01 -3.336759999999999726e-01 -4.132440000000000002e-01 2.110849999999999949e-01 8.641590000000000105e-01 -1.555539999999999978e-01 -5.059010000000000451e-01 5.935610000000000053e-01 3.289139999999999842e-01 1.290139999999999898e-01 8.548329999999999540e-01 -3.203289999999999749e-01 2.170380000000000087e-01 2.147040000000000060e-01 1.603999999999999870e-01 1.073859999999999953e-01 -8.503800000000000248e-02 -1.121400000000000001e-02 -6.357230000000000381e-01 -8.280700000000000560e-02 5.536480000000000290e-01 3.347629999999999773e-01 4.315289999999999959e-01 -1.459020000000000039e-01 3.924420000000000130e-01 -2.635600000000000095e-02 1.142636999999999903e+00 4.928540000000000143e-01 2.741310000000000136e-01 -3.674669999999999881e-01 -2.773100000000000009e-01 1.420190999999999981e+00 2.551399999999999849e-02 -1.160884999999999945e+00 1.132405000000000106e+00 1.025477999999999890e+00 -8.136560000000000459e-01 2.722660000000000080e-01