-1.036549944399999958e+02
-1.035526281000000068e+02
-1.057838104700000059e+02
-1.012986621400000047e+02
-1.063481414599999937e+02
-1.033415918000000033e+02
-1.024684768599999956e+02
-1.020531537500000070e+02
-9.832369126000000392e+01
-1.025683501500000006e+02
-1.006584519599999936e+02
-1.047120508999999942e+02
-1.058943035300000020e+02
-1.052670512800000040e+02
-1.004980312099999935e+02
-1.009252067099999977e+02
-1.039885399199999938e+02
-1.061689766199999951e+02
-1.041663362000000035e+02
-9.862258909000000529e+01
-1.027963396199999977e+02
-1.020940685900000062e+02
-1.015390002599999946e+02
-9.999179116000000533e+01
-1.027615646600000048e+02
-1.031510884000000061e+02
-1.037852048000000025e+02
-1.032324032399999965e+02
-1.060843066500000020e+02
-1.022332410799999991e+02
-9.859546555999999384e+01
-9.921524535000000355e+01
-1.035014082699999989e+02
-9.759930554999999686e+01
-1.015106053699999933e+02
-1.032154628899999977e+02
-1.002900414100000006e+02
-9.762913641999999470e+01
-1.032203785199999970e+02
-9.980033726000000627e+01
-1.043701817599999941e+02
-1.037372832899999935e+02
-1.048135119399999979e+02
-9.915715894999999591e+01
-1.025835884199999981e+02
-1.022116922200000033e+02
-1.032657939599999963e+02
-9.769188400000000172e+01
-1.061011229599999979e+02
-1.021309277999999949e+02
-1.026041207300000053e+02
-1.028281610100000023e+02
-1.029066122600000028e+02
-9.911468535000000202e+01
-1.047768285300000031e+02
-1.015426594000000051e+02
-1.053782598699999937e+02
-1.050994083300000028e+02
-1.012842098099999930e+02
-1.050398260099999987e+02
-1.028938632800000050e+02
-1.018860295000000065e+02
-1.038876010999999977e+02
-1.000675555800000041e+02
-1.014743584800000065e+02
-1.018570556800000020e+02
-1.048756310699999972e+02
-1.013787575199999935e+02
-1.027328141600000038e+02
-9.736542871000000332e+01
-1.034206144300000005e+02
-1.031382235100000031e+02
-1.011263478900000052e+02
-1.036347406200000023e+02
-1.037292121100000060e+02
-1.056836657500000030e+02
-1.038891877399999970e+02
-1.052974230199999965e+02
-1.024369526199999996e+02
-9.918736954000000594e+01
-9.833026370999999699e+01
-1.024917095999999930e+02
-1.070352359900000039e+02
-1.059675751399999939e+02
-1.043162899000000010e+02
-1.041677488800000049e+02
-1.035035013399999997e+02
-1.060542737300000056e+02
-1.014208690499999932e+02
-1.028480371200000008e+02
-1.059613643200000013e+02
-1.026626618800000017e+02
-1.016139783999999935e+02
-1.064400668600000017e+02
-1.041213785599999966e+02
-1.041259732999999983e+02
-1.027359123500000067e+02
-1.057810785000000067e+02
-1.035202493299999986e+02
-1.030133270900000042e+02
