1.626046000000000102e+00 -1.851928000000000019e+00 5.012569999999999526e-01 -3.903600000000000125e-02 -9.832729999999999526e-01 -2.327480000000000104e-01 1.255270000000000108e+00 -7.392809999999999659e-01 -1.222288000000000041e+00 -7.158100000000000573e-02 -1.116139999999999910e+00 -1.193199999999999990e-02 2.965760000000000063e-01 9.876610000000000111e-01 4.644519999999999760e-01 -6.319839999999999902e-01 -4.167509999999999826e-01 5.416710000000000136e-01 -4.047069999999999834e-01 5.841939999999999911e-01 4.449879999999999947e-01 -3.312999999999999973e-03 -2.406709999999999960e-01 4.751299999999999968e-02 7.814600000000000435e-01 -4.279209999999999958e-01 1.452523999999999926e+00 9.527529999999999610e-01 5.008190000000000142e-01 7.052829999999999933e-01 -1.907429999999999959e-01 -1.667289000000000021e+00 7.372950000000000337e-01 -5.370470000000000521e-01 8.476120000000000321e-01 -2.860179999999999945e-01 -1.203670000000000018e-01 3.386660000000000226e-01 -2.607329999999999925e-01 -1.323830000000000007e-01 1.089622000000000090e+00 6.224680000000000213e-01 -4.799799999999999900e-02 8.537120000000000264e-01 -1.129532999999999898e+00 -4.272399999999999809e-02 2.930449999999999999e-01 1.338757999999999893e+00 -2.800000000000000058e-02 3.026719999999999966e-01 3.799679999999999724e-01 -1.616335000000000077e+00 1.355380999999999947e+00 -5.816029999999999811e-01 -2.933390000000000164e-01 -5.665189999999999948e-01 4.911820000000000075e-01 4.496649999999999814e-01 5.701200000000000018e-02 -4.856550000000000034e-01 1.524939999999999907e-01 7.964930000000000065e-01 -2.394789999999999974e-01 1.702069999999999972e-01 -1.528200000000000044e-02 -6.131600000000000245e-02 -8.742659999999999876e-01 5.476500000000000118e-02 3.971859999999999835e-01 7.933999999999999386e-02 6.129959999999999853e-01 -5.453080000000000149e-01 -1.293047000000000057e+00 -7.309010000000000229e-01 1.830819999999999947e-01 -2.307579999999999909e-01 3.188449999999999895e-01 -1.077167999999999903e+00 9.771710000000000118e-01 4.754499999999999837e-01 -2.168400000000000050e-01 -6.278300000000000547e-02 1.088569999999999954e-01 -4.045790000000000219e-01 -9.478000000000000314e-03 -1.150166000000000022e+00 2.032329999999999970e-01 -1.110939999999999983e-01 3.283209999999999740e-01 -1.755657999999999941e+00
1.642720000000000014e-01 3.150580000000000047e-01 3.760499999999999954e-02 3.705459999999999865e-01 -2.898000000000000020e-01 4.741119999999999779e-01 1.023619999999999947e-01 1.229569999999999969e-01 -8.169309999999999627e-01 3.274719999999999853e-01 -1.088999999999999907e-03 -1.064562000000000008e+00 -2.370250000000000135e-01 -1.751949999999999896e-01 -3.327189999999999870e-01 5.548000000000000154e-02 -5.934479999999999755e-01 -7.439019999999999522e-01 -3.187760000000000038e-01 -1.700799999999999881e-02 -9.966599999999999904e-01 5.569000000000000165e-03 3.208759999999999946e-01 -7.173599999999999977e-01 -4.991209999999999813e-01 3.454829999999999846e-01 -2.770119999999999805e-01 1.510726000000000013e+00 1.515438999999999981e+00 -7.369940000000000380e-01 -7.446999999999999453e-02 -1.073177999999999965e+00 -8.220800000000000329e-02 -3.967829999999999968e-01 -6.245900000000000063e-02 -5.031569999999999654e-01 -1.714549999999999963e-01 3.670809999999999906e-01 -4.963080000000000269e-01 -6.151000000000000217e-02 -2.454780000000000018e-01 -6.533299999999999663e-01 -5.808470000000000022e-01 -2.194510000000000072e-01 8.278020000000000378e-01 1.688580000000000081e-01 -6.779000000000000303e-02 1.243116000000000110e+00 -4.511000000000000253e-03 3.694549999999999779e-01 5.261219999999999786e-01 -5.278739999999999544e-01 -7.848749999999999893e-01 9.604190000000000227e-01 -1.349650000000000016e-01 8.306360000000000410e-01 4.023510000000000142e-01 4.067950000000000177e-01 -5.824810000000000265e-01 7.474300000000000388e-02 2.165040000000000020e-01 4.076400000000000162e-02 1.752450000000000119e-01 1.451909999999999867e-01 -3.794310000000000183e-01 1.109893999999999936e+00 1.469940000000000135e-01 8.516829999999999679e-01 3.565260000000000096e-01 -1.939140000000000030e-01 -1.328419999999999879e-01 8.556669999999999554e-01 -1.506585000000000063e+00 -5.843169999999999753e-01 4.044079999999999897e-01 6.121429999999999927e-01 -3.454579999999999873e-01 -4.510060000000000180e-01 2.716219999999999746e-01 6.015999999999999646e-03 1.478869999999999907e-01 4.258509999999999796e-01 1.430133000000000099e+00 -1.022412000000000099e+00 -3.396549999999999847e-01 -1.206088999999999967e+00 7.355620000000000491e-01 1.171090000000000048e-01 2.448079999999999978e-01 5.631030000000000202e-01
1.813430000000000042e-01 -4.320030000000000259e-01 2.326580000000000037e-01 -5.800999999999999733e-03 5.948390000000000066e-01 2.895710000000000228e-01 -1.525029999999999997e-01 1.796750000000000014e-01 5.122440000000000326e-01 -5.890200000000000297e-02 2.421959999999999946e-01 2.284500000000000072e-02 -5.369479999999999809e-01 -8.801599999999999702e-02 -3.420000000000000123e-02 -3.038400000000000128e-02 4.544790000000000219e-01 -1.912399999999999864e-02 -8.401599999999999346e-02 -2.641049999999999787e-01 -1.209299999999999958e-02 3.597480000000000122e-01 2.968879999999999852e-01 4.451169999999999849e-01 -9.046800000000000674e-02 5.020620000000000083e-01 -3.277939999999999743e-01 1.208020000000000066e-01 5.020369999999999555e-01 3.247389999999999999e-01 5.650000000000000161e-02 3.242169999999999774e-01 -1.550890000000000046e-01 3.246099999999999680e-02 -3.600119999999999987e-01 3.061860000000000137e-01 -6.142469999999999875e-01 2.867199999999999957e-02 1.455569999999999919e-01 5.723390000000000422e-01 4.777449999999999752e-01 -4.648840000000000194e-01 1.210949999999999943e-01 2.771300000000000152e-02 -1.403010000000000090e-01 -1.618120000000000114e-01 -7.515290000000000026e-01 -1.990159999999999985e-01 -1.575030000000000041e-01 1.725970000000000004e-01 -5.916449999999999765e-01 -5.354500000000000232e-02 -6.470150000000000068e-01 -9.103400000000000380e-02 1.149550000000000016e-01 -3.908760000000000012e-01 6.997659999999999991e-01 7.732200000000000184e-02 5.181999999999999801e-02 -3.622099999999999764e-01 -8.737499999999999434e-02 -1.716709999999999903e-01 -1.189019999999999938e-01 -1.686860000000000026e-01 5.192800000000000193e-02 -7.297499999999999820e-02 3.449840000000000129e-01 1.738599999999999868e-01 -1.284140000000000004e-01 2.612030000000000185e-01 -1.331720000000000126e-01 -2.300810000000000077e-01 -1.108709999999999973e-01 -3.144440000000000013e-01 -1.024199999999999937e-02 9.134499999999999564e-02 -3.383280000000000176e-01 1.139339999999999936e-01 1.210750000000000021e-01 -1.635939999999999894e-01 4.150220000000000020e-01 -1.020479999999999998e-01 2.228159999999999863e-01 -8.305700000000000582e-02 2.713249999999999829e-01 -9.725499999999999423e-02 -2.205409999999999870e-01 -3.113890000000000269e-01 -1.515199999999999880e-01 -2.460370000000000057e-01
-2.067749999999999866e-01 1.097094999999999931e+00 -4.744959999999999734e-01 -5.363289999999999447e-01 -6.615259999999999474e-01 3.055350000000000010e-01 -2.335830000000000128e-01 2.992399999999999921e-02 1.052100000000000084e-02 -6.607849999999999557e-01 4.539400000000000102e-01 4.376519999999999855e-01 -1.379479999999999873e-01 5.409800000000000164e-01 -6.296380000000000310e-01 5.015709999999999891e-01 -7.566220000000000168e-01 2.211500000000000132e-01 6.010560000000000347e-01 1.031862999999999975e+00 1.231516999999999973e+00 -2.330629999999999924e-01 9.368680000000000341e-01 3.740029999999999744e-01 6.632200000000000595e-02 1.965481999999999951e+00 4.084329999999999905e-01 -2.743410000000000015e-01 -4.676239999999999841e-01 -2.042760000000000131e-01 3.420679999999999832e-01 8.372960000000000402e-01 1.300149999999999917e+00 3.997049999999999770e-01 4.950660000000000061e-01 1.280729999999999924e-01 -9.465600000000000402e-02 -1.692140000000000033e-01 1.232304000000000066e+00 3.003319999999999879e-01 -8.491560000000000219e-01 -3.257800000000000140e-01 8.390600000000000280e-01 2.229389999999999983e-01 -2.177769999999999984e-01 2.666299999999999920e-02 -1.519099999999999964e-02 -9.512680000000000025e-01 2.480350000000000055e-01 -3.391779999999999795e-01 -2.546030000000000237e-01 1.223849999999999938e-01 -7.044610000000000039e-01 5.682829999999999826e-01 2.029320000000000013e-01 -5.356370000000000298e-01 3.404809999999999781e-01 -8.262620000000000520e-01 -3.871600000000000041e-02 -3.228400000000000158e-01 5.244919999999999582e-01 -1.153029000000000082e+00 -8.050399999999999778e-01 -6.771949999999999914e-01 -4.909310000000000063e-01 -8.322990000000000110e-01 6.970800000000000607e-02 9.759800000000000419e-02 2.401870000000000116e-01 3.022079999999999766e-01 5.531449999999999978e-01 3.623850000000000127e-01 -5.119010000000000504e-01 -9.159629999999999717e-01 -5.426410000000000400e-01 3.927900000000000141e-02 -8.601729999999999654e-01 -2.880849999999999800e-01 6.847999999999999921e-02 -1.001527000000000056e+00 -3.168830000000000258e-01 -3.412319999999999798e-01 6.588519999999999932e-01 -1.159188000000000107e+00 7.725899999999999435e-02 7.568009999999999460e-01 4.765849999999999809e-01 2.516000000000000007e-03 -7.188999999999999835e-01 -3.124469999999999748e-01
6.941400000000000348e-02 -1.435600000000000070e-02 4.110559999999999770e-01 3.737969999999999904e-01 6.858360000000000012e-01 1.036937999999999915e+00 -3.751000000000000167e-02 -5.511390000000000455e-01 1.555739999999999901e-01 3.887800000000000283e-02 -2.272100000000000161e-02 3.731389999999999985e-01 -5.441259999999999986e-01 5.531460000000000266e-01 3.005869999999999931e-01 2.629700000000000093e-02 -1.278259999999999952e-01 -1.217540000000000011e-01 -2.472729999999999928e-01 4.604999999999999719e-03 4.576520000000000032e-01 -2.383000000000000118e-01 1.670159999999999978e-01 2.344640000000000057e-01 -6.261729999999999796e-01 -1.233800000000000001e-02 -2.135110000000000063e-01 3.976290000000000102e-01 -2.767830000000000013e-01 -1.247260000000000035e-01 -2.512070000000000136e-01 -5.943380000000000329e-01 -1.949889999999999957e-01 1.899109999999999965e-01 3.904650000000000065e-01 -7.347199999999999565e-02 3.905100000000000238e-02 3.427140000000000186e-01 -9.547899999999999443e-02 1.723099999999999979e-02 -2.581430000000000113e-01 -8.252709999999999768e-01 -1.720480000000000065e-01 2.571010000000000240e-01 -1.072440000000000060e-01 5.623899999999999733e-02 6.679400000000000615e-02 1.926480000000000137e-01 9.951500000000000623e-02 -6.739000000000000198e-03 -4.310359999999999747e-01 -5.491489999999999982e-01 -7.955659999999999954e-01 -3.671619999999999884e-01 -3.380299999999999971e-02 -6.692299999999999638e-02 8.152099999999999624e-02 1.160220000000000001e-01 -1.285270000000000024e-01 3.125979999999999870e-01 2.712720000000000131e-01 -3.944529999999999981e-01 -1.571809999999999874e-01 1.746610000000000107e-01 2.100920000000000010e-01 -2.275240000000000040e-01 2.140279999999999960e-01 -3.144390000000000240e-01 -6.814289999999999514e-01 9.598900000000000488e-02 3.036389999999999922e-01 -2.093440000000000023e-01 2.856250000000000178e-01 6.341849999999999987e-01 3.695339999999999736e-01 -7.903899999999999815e-02 -6.923400000000000387e-02 3.751269999999999882e-01 3.029330000000000078e-01 1.230220000000000063e-01 2.721799999999999914e-02 -2.685649999999999982e-01 1.286779999999999868e-01 3.091169999999999751e-01 1.636990000000000112e-01 -2.702600000000000002e-01 -2.995459999999999789e-01 1.150010000000000060e-01 3.649000000000000160e-02 -5.075049999999999839e-01
2.143700000000000119e-02 -3.521799999999999931e-02 -1.115690000000000015e-01 1.009619999999999962e+00 -5.709779999999999855e-01 -8.175799999999999734e-01 -2.894829999999999903e-01 2.914840000000000209e-01 -2.023300000000000098e-01 7.909199999999999564e-02 -1.136134999999999895e+00 -1.247125000000000039e+00 7.923710000000000475e-01 -7.322279999999999900e-01 2.005740000000000023e-01 5.199820000000000553e-01 4.039860000000000118e-01 1.595256999999999925e+00 -1.126000000000000056e-01 -4.670340000000000047e-01 -3.006800000000000098e-02 3.965380000000000016e-01 3.706409999999999982e-01 -8.941459999999999964e-01 -2.243960000000000121e-01 3.753599999999999992e-02 1.396063000000000054e+00 -3.613689999999999958e-01 -4.075199999999999934e-01 2.026499999999999968e-01 -5.335940000000000127e-01 2.616500000000000076e-02 -6.772869999999999724e-01 -2.424060000000000104e-01 -1.423208000000000029e+00 4.431610000000000271e-01 2.613499999999999851e-02 3.816959999999999797e-01 -7.019800000000000484e-01 -1.167573999999999890e+00 4.755220000000000002e-01 5.060139999999999638e-01 2.815739999999999910e-01 -6.278449999999999864e-01 6.455389999999999739e-01 1.571230000000000127e-01 2.425829999999999931e-01 1.662839999999999874e-01 -3.567499999999999838e-02 1.139659999999999979e-01 -7.876319999999999988e-01 6.984820000000000473e-01 -5.017110000000000181e-01 8.199579999999999647e-01 -7.546829999999999927e-01 1.171405999999999947e+00 -5.119850000000000234e-01 -2.766850000000000143e-01 -4.584230000000000249e-01 -1.333725999999999967e+00 9.613299999999999623e-02 2.834289999999999865e-01 -1.223100000000000055e-02 6.125599999999999795e-02 -5.330510000000000526e-01 7.963949999999999640e-01 -4.709869999999999890e-01 6.973230000000000262e-01 8.205510000000000304e-01 -1.888980000000000103e-01 2.401300000000000101e-01 3.626280000000000059e-01 6.193039999999999656e-01 3.385110000000000063e-01 -5.524310000000000054e-01 2.858000000000000124e-02 -3.087039999999999784e-01 -5.106429999999999580e-01 2.822439999999999949e-01 2.034921999999999898e+00 2.767560000000000020e-01 1.358799999999999938e-02 4.996799999999999853e-02 1.570306999999999897e+00 -3.974710000000000187e-01 -9.453100000000000391e-02 -1.062065999999999955e+00 -2.764099999999999890e-02 1.373179999999999956e-01 -3.493410000000000126e-01
-5.137300000000000200e-02 -6.011900000000000022e-01 -5.553690000000000015e-01 -2.765489999999999893e-01 7.608310000000000350e-01 -4.350439999999999863e-01 3.143179999999999863e-01 -4.697477000000000125e+00 2.315475999999999868e+00 4.410529999999999728e-01 9.963130000000000042e-01 -6.229609999999999870e-01 -1.259959999999999969e-01 1.973189999999999944e-01 -9.951029999999999598e-01 -3.994400000000000173e-01 -7.771280000000000410e-01 -2.266100000000000059e-02 -5.959659999999999958e-01 7.910559999999999814e-01 4.732990000000000252e-01 7.403499999999999526e-01 -2.578759999999999941e-01 6.504180000000000517e-01 5.654820000000000402e-01 2.079380000000000117e-01 3.042569999999999997e-01 1.544860000000000122e-01 2.840200000000000016e-02 -4.450749999999999984e-01 -2.111059999999999881e-01 7.745299999999999407e-02 -2.441220000000000057e-01 6.386619999999999520e-01 8.964900000000000091e-01 8.728390000000000315e-01 -1.690089999999999926e-01 4.116750000000000131e-01 -1.257536999999999905e+00 -8.751100000000000545e-02 -1.014186999999999950e+00 7.051439999999999930e-01 -6.083680000000000199e-01 3.450239999999999974e+00 -2.175600999999999896e+00 -1.561909999999999965e-01 7.812959999999999905e-01 9.677759999999999696e-01 5.018059999999999743e-01 7.457500000000000240e-02 1.399639999999999995e+00 5.955479999999999663e-01 3.436870000000000203e-01 -2.157479999999999953e-01 3.143529999999999935e-01 -5.616399999999999865e-02 8.561889999999999779e-01 4.214439999999999853e-01 7.619700000000000362e-01 1.844459999999999988e-01 8.819230000000000125e-01 9.393169999999999575e-01 1.454179999999999917e-01 -7.662619999999999987e-01 -7.914229999999999876e-01 2.160360000000000058e-01 1.986680000000000113e-01 8.139499999999999513e-01 8.460490000000000510e-01 -5.119359999999999467e-01 -1.356446000000000041e+00 -1.690625000000000044e+00 -2.679019999999999735e-01 -7.024179999999999868e-01 4.433210000000000206e-01 1.676199999999999912e-02 3.654830000000000023e-01 -2.395120000000000027e-01 3.894699999999999829e-01 1.071700000000000014e-01 1.731090000000000129e-01 -1.318694000000000033e+00 -1.015131000000000006e+00 -2.369640000000000080e-01 -4.507510000000000128e-01 6.703099999999999337e-02 -8.240539999999999532e-01 -1.772710000000000119e-01 -8.027549999999999963e-01 -5.930400000000000116e-01
-2.810799999999999965e-01 -4.251710000000000211e-01 -1.157659999999999911e+00 -4.417039999999999855e-01 3.878789999999999738e-01 1.771676000000000029e+00 6.910199999999999676e-01 -1.795474999999999932e+00 -1.121720999999999968e+00 -1.457269999999999954e-01 3.565010000000000123e-01 -5.727480000000000349e-01 -8.641499999999999737e-01 6.368100000000000149e-02 -4.638140000000000041e-01 -1.466600000000000022e-02 1.195991000000000026e+00 -3.021639999999999882e-01 2.065450000000000064e-01 -8.791200000000000125e-01 -9.430900000000000394e-02 5.174750000000000183e-01 -7.648840000000000083e-01 8.154989999999999739e-01 -1.180639999999999912e+00 1.998199999999999976e-01 -8.709689999999999932e-01 -1.439360000000000084e-01 -6.924299999999999899e-02 6.868520000000000181e-01 -6.286230000000000429e-01 3.898980000000000223e-01 -4.903319999999999901e-01 5.616649999999999698e-01 9.976549999999999585e-01 3.375469999999999859e-01 5.506569999999999521e-01 8.206259999999999666e-01 1.023485999999999896e+00 2.237010000000000109e-01 -8.593039999999999567e-01 1.288749999999999896e-01 -5.212679999999999536e-01 3.044379999999999864e-01 3.243309999999999804e-01 -8.898300000000000654e-02 6.284539999999999571e-01 3.465250000000000274e-01 -2.914399999999999977e-02 -1.639670000000000016e-01 3.496119999999999783e-01 4.226909999999999834e-01 -9.902199999999999891e-02 -1.065328999999999970e+00 1.522149999999999892e-01 6.579730000000000301e-01 8.203270000000000284e-01 1.099029999999999951e+00 -1.803590000000000027e+00 -2.638480000000000270e-01 -4.217699999999999921e-02 4.379549999999999832e-01 -6.534700000000000231e-02 1.463899999999999924e-02 -8.336300000000000654e-02 -5.499509999999999676e-01 -5.874200000000000255e-02 8.090850000000000541e-01 -8.182999999999999302e-03 -1.874480000000000035e-01 1.361599999999999963e-02 9.140289999999999804e-01 9.946679999999999966e-01 5.566750000000000309e-01 -9.028899999999999426e-02 5.386079999999999757e-01 -1.712150000000000061e-01 -4.410899999999999821e-01 -3.261060000000000070e-01 -9.339499999999999469e-01 -5.470209999999999795e-01 -9.420299999999999507e-02 -1.071320000000000050e-01 -4.575750000000000095e-01 -6.698420000000000485e-01 -7.931559999999999722e-01 7.857499999999999485e-01 -2.544770000000000088e-01 1.128346000000000071e+00 2.578420000000000156e-01
1.217478999999999978e+00 -1.196440000000000003e-01 -2.491607999999999823e+00 4.499739999999999851e-01 -2.859949999999999992e-01 1.248863000000000056e+00 1.851200000000000068e-01 -4.012859999999999761e-01 -1.803200000000000081e-01 1.243670000000000053e-01 -9.108100000000000085e-01 5.284550000000000081e-01 2.941900000000000071e-02 3.823630000000000084e-01 1.250329000000000024e+00 8.837299999999999323e-02 6.286500000000000421e-02 1.370312999999999892e+00 5.882519999999999971e-01 1.139623000000000053e+00 1.414829999999999977e-01 4.811239999999999961e-01 -2.963950000000000196e-01 -1.170026999999999928e+00 5.943540000000000489e-01 -1.631415999999999977e+00 -6.513900000000000245e-02 4.429339999999999944e-01 -1.004540000000000016e-01 -3.692280000000000006e-01 -1.541778000000000093e+00 -7.584130000000000038e-01 -1.648417999999999939e+00 -1.262015000000000109e+00 1.316372000000000098e+00 4.149660000000000015e-01 -1.375523000000000051e+00 2.944300000000000042e-02 1.522799000000000014e+00 1.500450000000000117e-01 3.831939999999999791e-01 -8.435199999999999643e-02 -4.678269999999999929e-01 -8.311699999999999644e-02 -1.432460000000000122e-01 3.606999999999999963e-03 1.158106999999999998e+00 1.118959999999999955e-01 -7.815950000000000397e-01 1.280920000000000059e+00 1.289446000000000092e+00 1.605051000000000005e+00 -1.288880000000000026e-01 7.140509999999999913e-01 -6.357500000000000651e-02 -4.243850000000000122e-01 -1.779925999999999897e+00 1.192870000000000041e-01 5.830199999999999966e-02 -1.207508000000000026e+00 -3.801019999999999954e-01 -1.036189999999999944e+00 4.661739999999999773e-01 -3.192539999999999822e-01 2.296580000000000010e-01 1.254931000000000019e+00 -2.947549999999999892e-01 1.950800000000000103e-02 2.704130000000000145e-01 9.363000000000000489e-02 8.147300000000000375e-02 -1.026713999999999904e+00 -2.897649999999999948e-01 1.633917000000000064e+00 -1.562639999999999862e-01 -2.036989999999999912e-01 -2.923040000000000083e-01 -8.385190000000000143e-01 2.920249999999999790e-01 -1.015870999999999968e+00 4.793450000000000211e-01 1.153345000000000065e+00 -2.796600000000000197e-01 -2.897469999999999768e-01 2.021999999999999839e-02 1.186450000000000005e+00 7.506509999999999572e-01 -6.587210000000000010e-01 -1.197367000000000070e+00 -3.630990000000000051e-01
8.127999999999999670e-01 -9.017220000000000235e-01 1.157245000000000079e+00 1.466080999999999968e+00 -7.826720000000000343e-01 2.677099999999999966e-02 7.512199999999999434e-02 -1.058375000000000066e+00 3.109202999999999939e+00 6.144429999999999614e-01 -3.628210000000000046e-01 -6.629509999999999570e-01 -8.021000000000000352e-02 -3.932299999999999685e-02 4.918899999999999939e-01 -4.647620000000000084e-01 -1.780796999999999963e+00 -8.341300000000000381e-01 2.364940000000000098e-01 2.047799999999999968e-02 5.329049999999999621e-01 2.657100000000000087e-02 -9.023860000000000214e-01 5.292229999999999990e-01 4.393440000000000123e-01 -4.594559999999999755e-01 -1.770767999999999898e+00 -9.806499999999999939e-02 -1.219732999999999956e+00 -2.028419999999999945e-01 7.075199999999999545e-02 -6.140219999999999567e-01 -8.111720000000000041e-01 3.683100000000000263e-02 1.538183999999999996e+00 -7.822350000000000136e-01 -1.809828999999999910e+00 1.502021000000000051e+00 6.493500000000000660e-02 2.585140000000000216e-01 -9.825190000000000312e-01 -7.250229999999999730e-01 -3.479809999999999848e-01 -4.206460000000000199e-01 3.251470000000000193e-01 -5.050839999999999774e-01 1.163043999999999967e+00 -3.581446000000000129e+00 -2.079330000000000067e-01 -8.663999999999999480e-02 4.559369999999999812e-01 -9.888599999999999612e-01 1.479189000000000087e+00 -3.338110000000000244e-01 3.411089999999999955e-01 1.495171999999999946e+00 -5.980649999999999578e-01 -1.425299999999999900e-01 2.819960000000000244e-01 -1.391242000000000090e+00 1.578259999999999941e-01 9.262820000000000498e-01 -8.439579999999999860e-01 6.235420000000000407e-01 -5.714150000000000063e-01 -3.535599999999999854e-01 2.675250000000000128e-01 1.945560000000000067e-01 1.029384999999999994e+00 3.994779999999999998e-01 5.717560000000000420e-01 8.033740000000000325e-01 2.594359999999999999e-01 1.414358000000000004e+00 4.012299999999999756e-01 -2.695509999999999851e-01 -1.408000000000000050e-02 1.189183000000000101e+00 -1.167200000000000008e-02 -1.066801000000000110e+00 -2.203099999999999850e-02 1.310860000000000081e-01 2.964620000000000033e-01 1.416166000000000036e+00 8.772099999999999342e-02 -5.442510000000000403e-01 -4.920749999999999846e-01 -1.378201999999999927e+00 9.241599999999999815e-01 1.872716999999999965e+00
1.292256999999999989e+00 2.328659999999999897e-01 -2.233722000000000207e+00 -3.884409999999999807e-01 -1.740599999999999925e-01 -3.847180000000000044e-01 -6.354940000000000033e-01 -7.754999999999999394e-02 9.002580000000000027e-01 -7.728599999999999359e-02 1.172144000000000075e+00 1.158551000000000109e+00 -3.326779999999999737e-01 -1.290267999999999970e+00 -5.321169999999999511e-01 -6.858170000000000099e-01 -7.259339999999999682e-01 -5.970839999999999481e-01 1.689950000000000063e-01 1.235710000000000003e-01 1.719980000000000120e-01 8.205500000000000294e-02 -1.406992999999999938e+00 6.408949999999999925e-01 -1.796550000000000091e-01 1.370629999999999904e-01 9.679189999999999738e-01 -1.059398999999999980e+00 6.306100000000000039e-01 -1.371966999999999937e+00 -6.786529999999999507e-01 -1.419229999999999936e-01 -1.235084999999999988e+00 5.262449999999999628e-01 9.485569999999999835e-01 2.139969999999999928e-01 -8.977110000000000367e-01 3.013540000000000108e-01 1.901087999999999889e+00 -1.563980000000000092e-01 1.897619999999999862e-01 1.414650000000000074e-01 6.822880000000000056e-01 -7.633199999999999985e-01 -1.251980000000000037e-01 3.781939999999999746e-01 -4.284089999999999843e-01 8.945400000000000573e-02 -7.832270000000000065e-01 3.816249999999999920e-01 2.870579999999999798e-01 2.890650000000000164e-01 -3.506859999999999977e-01 3.450399999999999995e-02 6.084850000000000536e-01 1.412319000000000102e+00 -2.924069999999999725e-01 2.404280000000000028e-01 7.116679999999999673e-01 1.974069999999999991e-01 1.521859999999999880e-01 2.509659999999999780e+00 -6.329139999999999766e-01 -3.931500000000000272e-02 -9.124189999999999801e-01 -7.481250000000000400e-01 -6.650599999999999568e-02 -2.480950000000000100e-01 1.817999999999999955e-03 6.437169999999999837e-01 1.066420000000000007e-01 -2.611640000000000073e-01 3.446370000000000267e-01 -8.138990000000000391e-01 -7.163429999999999520e-01 1.439200999999999953e+00 3.627650000000000041e-01 1.081148999999999916e+00 5.377009999999999845e-01 -1.399561000000000055e+00 8.703579999999999650e-01 -8.350859999999999950e-01 4.041100000000000247e-01 -7.105869999999999687e-01 -6.234650000000000469e-01 2.854990000000000028e-01 1.203160000000000007e+00 5.367500000000000049e-02 -1.177097000000000060e+00 -1.964799999999999880e-02
-7.492400000000000448e-02 1.833650000000000002e-01 -4.405419999999999892e-01 -3.059660000000000157e-01 7.367989999999999817e-01 -3.148869999999999725e-01 -6.187599999999999767e-01 3.560320000000000151e-01 -3.213309999999999778e-01 1.950500000000000150e-02 -6.028010000000000312e-01 -2.580519999999999925e+00 -1.659008000000000038e+00 -9.347739999999999938e-01 -7.527380000000000182e-01 -3.131840000000000179e-01 2.182630000000000126e-01 2.612400000000000139e-02 -2.417590000000000017e-01 -5.737400000000000277e-01 7.635049999999999892e-01 -8.258360000000000145e-01 9.931849999999999845e-01 7.038990000000000524e-01 2.269259999999999888e-01 9.192540000000000155e-01 -1.068940000000000029e-01 4.636200000000000043e-02 -8.789169999999999483e-01 4.782640000000000224e-01 -2.443720000000000059e-01 1.243670000000000053e-01 -1.649829999999999908e-01 -3.428490000000000149e-01 -1.093459999999999988e-01 -2.939800000000000052e-02 2.029060000000000030e-01 -4.250160000000000049e-01 4.503510000000000013e-01 3.490340000000000109e-01 -7.058720000000000550e-01 7.120300000000000240e-02 1.085630000000000067e-01 1.496250000000000080e-01 7.048619999999999886e-01 3.290629999999999944e-01 2.398649999999999949e-01 5.500610000000000221e-01 -3.390980000000000105e-01 8.334999999999999354e-02 3.264119999999999799e-01 -7.884499999999999842e-02 5.912400000000000294e-02 1.907599999999999921e-02 1.328184999999999949e+00 1.048370000000000024e+00 2.177880000000000094e-01 2.496440000000000048e-01 -5.259650000000000158e-01 -7.974299999999999722e-01 6.363210000000000255e-01 -7.622330000000000494e-01 9.363499999999999601e-02 4.431769999999999876e-01 8.742999999999999383e-02 -4.421109999999999762e-01 1.451790000000000025e-01 -7.533099999999999519e-02 2.099461999999999939e+00 4.842090000000000005e-01 2.788559999999999928e-01 5.656290000000000484e-01 2.521199999999999830e-02 -4.060349999999999793e-01 1.998560000000000059e-01 -1.981169999999999876e-01 -7.327890000000000237e-01 -2.863459999999999894e-01 1.860719999999999874e-01 1.507000000000000093e-03 -4.241999999999999937e-02 6.001319999999999988e-01 1.231030000000000041e-01 8.019199999999999939e-02 1.183609999999999940e-01 4.063620000000000010e-01 -4.053019999999999956e-01 -2.561309999999999976e-01 7.239619999999999944e-01 -6.654139999999999500e-01
1.602810000000000068e-01 -1.163440999999999947e+00 3.945130000000000026e-01 -3.345200000000000257e-02 4.942590000000000039e-01 5.981269999999999643e-01 4.295299999999999813e-02 1.429870000000000030e-01 4.722859999999999836e-01 -2.803800000000000042e-02 1.134789999999999965e-01 -6.569600000000000439e-02 -5.202909999999999480e-01 3.264250000000000207e-01 2.229160000000000030e-01 4.491430000000000144e-01 -2.797300000000000134e-02 -6.060700000000000115e-02 -3.313599999999999879e-02 5.159529999999999950e-01 -1.901349999999999985e-01 4.017890000000000073e-01 -2.377399999999999999e-02 4.642789999999999973e-01 7.627909999999999968e-01 -1.206911999999999985e+00 -8.152549999999999519e-01 -4.171989999999999865e-01 5.668579999999999730e-01 2.953649999999999887e-01 -3.499999999999999778e-01 1.047769999999999951e-01 -2.195989999999999887e-01 2.257740000000000025e-01 -4.029570000000000096e-01 -7.437199999999999367e-02 9.820199999999999763e-02 4.597289999999999988e-01 -4.346700000000000008e-01 -3.064580000000000082e-01 -4.796770000000000200e-01 -4.506740000000000190e-01 7.120300000000000240e-02 -1.054699999999999943e-01 -5.317680000000000184e-01 4.531799999999999717e-02 -1.839330000000000132e-01 -2.164609999999999868e-01 7.322199999999999542e-02 5.513439999999999452e-01 1.786300000000000110e-01 -8.692999999999999339e-03 4.855399999999999994e-02 -3.543020000000000058e-01 2.115990000000000093e-01 -6.877999999999999392e-02 3.796789999999999887e-01 -3.123870000000000258e-01 -9.578000000000000402e-02 -4.160969999999999946e-01 1.717660000000000020e-01 -2.895050000000000123e-01 2.755219999999999891e-01 -3.932129999999999792e-01 -9.334800000000000042e-02 -2.290929999999999911e-01 5.363899999999999918e-02 -2.632100000000000065e-02 -7.562699999999999978e-02 -4.537299999999999667e-02 -1.050050000000000011e-01 9.599000000000000588e-02 -8.287470000000000114e-01 5.705799999999999761e-01 5.865000000000000421e-03 -2.563489999999999935e-01 3.637549999999999950e-01 -5.533270000000000133e-01 3.277499999999999858e-01 1.204940000000000039e-01 7.503560000000000230e-01 1.318500000000000054e-02 1.601930000000000021e-01 3.853619999999999823e-01 3.409209999999999741e-01 -3.889399999999999802e-02 8.008800000000000641e-02 8.379999999999999949e-02 -2.276170000000000138e-01 8.870400000000000507e-02