2.451200000000000045e+00 1.536229999999999984e+00 1.734509999999999996e+00 2.008199999999999985e-01 5.234930000000000305e+00 1.531430000000000069e+00 1.049469999999999903e+00 7.333969999999999878e+00 8.032640000000000668e+00 2.980550000000000033e+00 3.808510000000000062e+00 7.915799999999999947e+00 9.019500000000000295e-01 2.528010000000000090e+00 1.130826000000000064e+01 2.577360000000000095e+00 6.161400000000000432e+00 1.174235999999999969e+01 2.268879999999999786e+00 1.691680000000000073e+00 1.797116000000000113e+01 1.114900000000000002e+00 5.486959999999999837e+00 1.853816000000000130e+01 4.370320000000000427e+00 3.180000000000000049e-01 2.306525999999999854e+01 1.924120000000000053e+00 3.749659999999999993e+00 2.286946000000000012e+01 5.066609999999999836e+00 2.191739999999999799e+00 2.868616000000000099e+01 3.023499999999999854e+00 5.599429999999999907e+00 2.995055999999999941e+01 2.020249999999999879e+00 1.096219999999999972e+00 4.244710000000000427e+00 3.907099999999999795e+00 3.794360000000000177e+00 3.375579999999999803e+00 6.522000000000000020e-01 2.463260000000000005e+00 6.521639999999999660e+00 3.148499999999999854e+00 6.080820000000000114e+00 6.709170000000000300e+00 1.679900000000000004e-01 7.408680000000000376e+00 2.201700000000000046e-01 3.885060000000000180e+00 3.743450000000000166e+00 3.153986000000000089e+01 1.111839999999999939e+00 1.900609999999999911e+00 1.411805999999999983e+01 3.772299999999999986e+00 6.302900000000000169e-01 1.388916000000000039e+01 4.514249999999999652e+00 1.043300000000000061e-01 1.722975999999999885e+01 2.753390000000000004e+00 4.092640000000000278e+00 1.718885999999999825e+01 2.875890000000000057e+00 1.407299999999999995e+00 1.019708999999999932e+01 4.311200000000000032e-01 4.900150000000000006e+00 9.728559999999999874e+00 9.159500000000000419e-01 2.561599999999999988e-01 2.539715999999999951e+01 1.524119999999999919e+00 3.125599999999999934e+00 2.524576000000000064e+01 2.890089999999999826e+00 8.239100000000000312e-01 2.871096000000000004e+01 1.038640000000000008e+00 5.123450000000000060e+00 2.855476000000000170e+01 3.982959999999999834e+00 2.499060000000000059e+00 2.154926000000000030e+01 2.388450000000000184e+00 6.514269999999999783e+00 2.218936000000000064e+01
3.293750000000000178e+00 2.071959999999999802e+00 1.529879999999999907e+00 2.260720000000000063e+00 5.530590000000000117e+00 2.516680000000000028e+00 2.573399999999999910e+00 1.467209999999999903e+00 5.827709999999999724e+00 5.017599999999999838e-01 4.737070000000000114e+00 6.393889999999999851e+00 2.227479999999999905e+00 1.130859999999999976e+00 1.110155999999999921e+01 3.704299999999999815e-01 4.800980000000000025e+00 1.105376000000000047e+01 3.317410000000000192e+00 3.434790000000000010e+00 1.687585999999999942e+01 8.096600000000000463e-01 2.097600000000000020e-01 1.755086000000000013e+01 2.038600000000000134e-01 6.484609999999999985e+00 2.144935999999999865e+01 1.686450000000000005e+00 3.381289999999999907e+00 2.075825999999999993e+01 3.395939999999999959e+00 6.598989999999999689e+00 2.734375999999999962e+01 1.574480000000000102e+00 3.093249999999999833e+00 2.720395999999999859e+01 6.085999999999999743e-02 4.044059999999999988e+00 3.725839999999999819e+00 1.827120000000000077e+00 8.407400000000000428e-01 3.463719999999999910e+00 6.046200000000000463e-01 2.147769999999999957e+00 7.372830000000000439e+00 2.583800000000000097e+00 6.189560000000000173e+00 6.811009999999999565e+00 1.160579999999999945e+00 3.663250000000000117e+00 4.224200000000000177e-01 1.305999999999999939e-01 6.909530000000000172e+00 5.926700000000000301e-01 2.744190000000000129e+00 2.983399999999999941e-01 1.356485999999999947e+01 9.679999999999999369e-03 5.761260000000000048e+00 1.365265999999999913e+01 1.150849999999999929e+00 2.240569999999999951e+00 1.574586000000000041e+01 3.070180000000000131e+00 6.151130000000000209e+00 1.613375999999999877e+01 4.075500000000000234e-01 6.939040000000000319e+00 9.700079999999999814e+00 2.397089999999999943e+00 3.264839999999999964e+00 9.717840000000000700e+00 2.029500000000000082e+00 4.426499999999999879e-01 2.248755999999999844e+01 3.790690000000000115e+00 4.093490000000000073e+00 2.251996000000000109e+01 1.292750000000000066e+00 5.552059999999999995e+00 2.600375999999999976e+01 3.549589999999999801e+00 1.698909999999999920e+00 2.626595999999999975e+01 3.358359999999999790e+00 1.973799999999999999e+00 1.919356000000000151e+01 1.362900000000000000e+00 5.370059999999999611e+00 1.927146000000000114e+01
6.893200000000000438e-01 1.194550000000000001e+00 1.758380000000000054e+00 3.047270000000000145e+00 4.972179999999999822e+00 1.212690000000000046e+00 3.316790000000000127e+00 4.200000000000000261e-02 5.449010000000000353e+00 1.211079999999999934e+00 4.162510000000000154e+00 5.582460000000000200e+00 1.153319999999999901e+00 7.119799999999999685e+00 1.169389999999999930e+01 2.796069999999999833e+00 3.497669999999999835e+00 1.157380000000000031e+01 8.681799999999999518e-01 6.110649999999999693e+00 1.900459999999999994e+01 2.929980000000000029e+00 2.537500000000000089e+00 1.816839999999999833e+01 1.019549999999999956e+00 6.978900000000000103e-01 2.258010000000000161e+01 3.604940000000000033e+00 4.583140000000000214e+00 2.233170000000000144e+01 1.205559999999999965e+00 6.735019999999999563e+00 2.752319999999999922e+01 2.687500000000000000e+00 3.268990000000000062e+00 2.753620000000000090e+01 4.073520000000000252e+00 3.447560000000000180e+00 3.314080000000000137e+00 3.048849999999999838e+00 7.281600000000000072e+00 3.012900000000000134e+00 1.087499999999999911e+00 1.549139999999999961e+00 6.320570000000000022e+00 3.243479999999999919e+00 5.072440000000000282e+00 6.816399999999999793e+00 2.652359999999999829e+00 2.503659999999999997e+00 3.020380000000000109e+01 5.663799999999999946e-01 6.363030000000000186e+00 3.004970000000000141e+01 1.290610000000000035e+00 6.029049999999999798e+00 1.404899999999999949e+01 2.188029999999999919e+00 3.932539999999999925e+00 1.430620000000000047e+01 3.038520000000000110e+00 5.070999999999999730e+00 1.718290000000000006e+01 9.774300000000000210e-01 1.016950000000000021e+00 1.743750000000000000e+01 2.747609999999999886e+00 5.847299999999999720e+00 1.003836000000000084e+01 9.606799999999999784e-01 1.976869999999999905e+00 1.048415999999999926e+01 3.232680000000000220e+00 2.007940000000000058e+00 2.405079999999999885e+01 1.527369999999999894e+00 5.775000000000000355e+00 2.341029999999999944e+01 3.292769999999999975e+00 5.835679999999999978e+00 2.618830000000000169e+01 8.081099999999999950e-01 1.592009999999999925e+00 2.689780000000000015e+01 3.501799999999999913e-01 3.559309999999999974e+00 2.022350000000000136e+01 2.800170000000000048e+00 7.678499999999999659e+00 2.064450000000000074e+01
2.326820000000000110e+00 9.640199999999999880e-01 1.092140000000000111e+00 4.105489999999999640e+00 4.743640000000000079e+00 1.771409999999999929e+00 3.731790000000000163e+00 6.980129999999999946e+00 7.893259999999999721e+00 1.797830000000000039e+00 3.316170000000000062e+00 7.741060000000000052e+00 3.729540000000000077e+00 2.810830000000000162e+00 1.130932999999999922e+01 2.152960000000000207e+00 6.636160000000000281e+00 1.162273000000000067e+01 2.324059999999999793e+00 1.032140000000000057e+00 1.642293000000000092e+01 2.995399999999999729e-01 4.558519999999999683e+00 1.776242999999999839e+01 3.723199999999999843e-01 4.789499999999999869e-01 2.059973000000000098e+01 3.056229999999999780e+00 4.215819999999999901e+00 2.187042999999999893e+01 4.000149999999999650e+00 2.668620000000000214e+00 2.758522999999999925e+01 1.647080000000000100e+00 6.287880000000000358e+00 2.733443000000000112e+01 1.988029999999999964e+00 6.598500000000000476e-01 3.499909999999999854e+00 2.213760000000000172e+00 5.549579999999999735e+00 3.637859999999999872e+00 3.981650000000000134e+00 2.196140000000000203e+00 6.554750000000000298e+00 1.660239999999999938e+00 5.684470000000000134e+00 6.708219999999999850e+00 2.386800000000000033e-01 6.950280000000000236e+00 2.973693000000000097e+01 2.447929999999999939e+00 3.317509999999999959e+00 2.957322999999999880e+01 1.301600000000000090e+00 2.135720000000000063e+00 1.316533000000000087e+01 1.974869999999999903e+00 4.436600000000000321e+00 1.337552999999999948e+01 2.881000000000000227e-01 6.868149999999999977e+00 1.620533000000000001e+01 2.309489999999999821e+00 3.532200000000000006e+00 1.629692999999999969e+01 2.240190000000000126e+00 1.546899999999999942e+00 9.609270000000000422e+00 5.623999999999999833e-02 5.280109999999999637e+00 1.011973000000000056e+01 1.295579999999999954e+00 9.709100000000000508e-01 2.290743000000000151e+01 1.264880000000000004e+00 3.374620000000000175e+00 2.359383000000000052e+01 1.775099999999999900e+00 1.419410000000000061e+00 2.640633000000000052e+01 3.700829999999999842e+00 5.112260000000000026e+00 2.630022999999999911e+01 3.419499999999999762e-01 3.000000000000000000e+00 2.000312999999999874e+01 2.535130000000000106e+00 6.141239999999999810e+00 1.982043000000000177e+01
2.262399999999999967e+00 1.000499999999999945e+00 1.597900000000000098e+00 3.259699999999999820e-01 4.939379999999999882e+00 1.574019999999999975e+00 7.811700000000000310e-01 7.352350000000000385e+00 5.642850000000000144e+00 2.554730000000000167e+00 3.906039999999999957e+00 5.554809999999999803e+00 1.272499999999999964e+00 6.996099999999999541e-01 1.094538999999999973e+01 3.034699999999999953e+00 4.642890000000000406e+00 1.192728999999999928e+01 2.567569999999999908e+00 5.048650000000000304e+00 1.916279000000000110e+01 1.586039999999999894e+00 1.982769999999999921e+00 1.665409000000000006e+01 3.406250000000000000e+00 7.210009999999999586e+00 2.211109000000000080e+01 6.565999999999999615e-01 3.744889999999999830e+00 2.220579000000000036e+01 3.101119999999999877e+00 6.445800000000000196e+00 2.743028999999999940e+01 5.643799999999999928e-01 2.588940000000000019e+00 2.719718999999999909e+01 2.527969999999999828e+00 3.758010000000000073e+00 2.916560000000000041e+00 3.165299999999999780e-01 3.144000000000000267e-02 3.147510000000000030e+00 2.753820000000000157e+00 1.421300000000000008e+00 6.502760000000000318e+00 4.857299999999999951e-01 4.986500000000000377e+00 6.884100000000000108e+00 3.726119999999999877e+00 2.658110000000000195e+00 2.951268999999999920e+01 2.172509999999999941e+00 6.229809999999999626e+00 2.631899999999999795e-01 1.579469999999999930e+00 7.177050000000000374e+00 1.338598999999999961e+01 7.611400000000000388e-01 4.941440000000000055e+00 1.372239000000000075e+01 2.084979999999999833e+00 4.484790000000000276e+00 1.656869000000000014e+01 3.653070000000000039e+00 6.413299999999999557e-01 1.627068999999999832e+01 3.457180000000000142e+00 6.947820000000000107e+00 1.000503999999999927e+01 1.061309999999999976e+00 3.319589999999999819e+00 1.032855999999999952e+01 1.164660000000000029e+00 1.312750000000000083e+00 2.305599000000000132e+01 2.732520000000000060e+00 5.082239999999999647e+00 2.326499000000000095e+01 8.755600000000000049e-01 5.154930000000000234e+00 2.642408999999999963e+01 2.502429999999999932e+00 1.151920000000000055e+00 2.605889000000000166e+01 6.149999999999999911e-01 3.480350000000000055e+00 1.963549000000000078e+01 3.718049999999999855e+00 7.468079999999999607e+00 1.961089000000000127e+01
1.346549999999999914e+00 2.113449999999999829e+00 2.739059999999999828e+00 8.258900000000000130e-01 5.419439999999999813e+00 2.104039999999999910e+00 3.923639999999999795e+00 7.371830000000000105e+00 6.833619999999999806e+00 2.828219999999999956e+00 3.618980000000000086e+00 7.650310000000000166e+00 2.446709999999999940e+00 2.542120000000000157e+00 1.162046999999999919e+01 8.217799999999999550e-01 6.409869999999999735e+00 1.119516999999999918e+01 1.211940000000000017e+00 1.520880000000000010e+00 1.714767000000000152e+01 -2.761999999999999872e-02 5.243299999999999628e+00 1.729996999999999829e+01 3.589240000000000208e+00 1.458869999999999889e+00 2.069866999999999990e+01 9.605599999999999694e-01 4.633750000000000036e+00 2.205726999999999904e+01 4.010500000000000176e-01 3.521970000000000045e+00 2.714276999999999873e+01 2.489980000000000082e+00 7.006450000000000067e+00 2.792426999999999992e+01 1.983670000000000044e+00 7.302220000000000155e+00 3.420269999999999921e+00 2.174960000000000004e+00 4.072320000000000384e+00 4.002810000000000201e+00 5.981699999999999795e-01 2.469279999999999919e+00 6.510329999999999728e+00 2.011530000000000040e+00 5.784259999999999735e+00 6.399890000000000079e+00 3.296199999999999797e+00 6.809540000000000148e+00 5.483900000000000441e-01 1.002650000000000041e+00 3.369569999999999954e+00 2.264599999999999946e-01 2.085400000000000031e-01 2.417940000000000200e+00 1.354106999999999950e+01 -1.989700000000000080e-01 4.914939999999999642e+00 1.332787000000000077e+01 -2.060000000000000026e-02 7.314370000000000260e+00 1.565187000000000062e+01 2.247119999999999784e+00 3.763729999999999798e+00 1.621246999999999971e+01 8.942400000000000349e-01 1.352770000000000028e+00 9.926109999999999545e+00 2.853060000000000151e+00 4.842690000000000161e+00 1.003866999999999976e+01 3.456379999999999786e+00 7.109210000000000029e+00 2.243317000000000050e+01 3.072869999999999990e+00 3.064750000000000085e+00 2.302257000000000176e+01 2.567060000000000120e+00 2.042289999999999939e+00 2.617276999999999987e+01 5.872699999999999587e-01 5.975299999999999834e+00 2.641216999999999970e+01 2.101999999999999980e-01 3.769179999999999975e+00 1.940417000000000058e+01 1.621199999999999974e+00 7.729260000000000019e+00 1.928776999999999830e+01
3.152489999999999792e+00 2.877089999999999925e+00 2.780209999999999848e+00 6.622700000000000253e-01 5.920250000000000234e+00 1.805770000000000097e+00 1.246000000000000024e-01 6.720600000000000129e+00 7.473019999999999996e+00 1.792559999999999931e+00 2.667949999999999822e+00 7.751529999999999809e+00 8.063500000000000112e-01 2.444440000000000168e+00 1.179124999999999979e+01 1.943310000000000093e+00 5.701240000000000308e+00 1.146894999999999953e+01 1.474609999999999976e+00 1.074719999999999898e+00 1.697374999999999901e+01 3.611050000000000093e+00 4.806449999999999889e+00 1.724484999999999957e+01 1.302300000000000124e-01 4.675599999999999756e-01 2.123835000000000051e+01 2.147190000000000154e+00 4.322110000000000340e+00 2.040384999999999849e+01 3.895389999999999908e+00 3.072290000000000187e+00 2.824765000000000015e+01 1.896589999999999998e+00 6.958459999999999646e+00 2.815524999999999878e+01 1.382050000000000001e+00 1.210239999999999982e+00 3.545090000000000074e+00 3.999719999999999942e+00 4.751769999999999605e+00 3.964069999999999983e+00 3.987929999999999975e+00 1.764869999999999939e+00 6.238929999999999865e+00 2.052799999999999958e+00 5.241200000000000081e+00 6.474590000000000067e+00 6.003699999999999593e-01 5.932699999999999640e-01 1.165800000000000031e-01 2.960960000000000036e+00 4.260950000000000237e+00 4.548699999999999966e-01 1.438420000000000032e+00 4.985499999999999932e-01 1.330344999999999978e+01 3.390950000000000131e+00 4.384960000000000413e+00 1.317464999999999975e+01 3.620810000000000084e+00 7.240990000000000038e+00 1.575755000000000017e+01 1.599769999999999914e+00 3.691739999999999799e+00 1.587235000000000085e+01 1.966159999999999908e+00 4.153100000000000125e-01 9.689460000000000406e+00 7.364899999999999780e-01 4.278909999999999769e+00 9.560890000000000555e+00 7.125500000000000167e-01 5.390039999999999942e+00 2.354895000000000138e+01 3.100579999999999892e+00 4.161590000000000344e+00 2.297735000000000127e+01 1.855969999999999898e+00 2.140880000000000116e+00 2.686195000000000022e+01 3.940549999999999997e+00 5.811819999999999986e+00 2.705685000000000073e+01 9.364000000000000101e-02 2.868939999999999824e+00 1.936524999999999963e+01 2.223059999999999814e+00 6.785280000000000200e+00 1.927295000000000158e+01
3.535660000000000025e+00 2.274309999999999832e+00 1.558249999999999913e+00 1.318040000000000100e+00 5.867740000000000400e+00 1.789250000000000007e+00 1.669859999999999900e+00 1.791800000000000059e-01 5.626660000000000217e+00 3.345870000000000122e+00 4.032689999999999664e+00 5.936009999999999565e+00 6.377699999999999481e-01 7.487429999999999808e+00 1.129397999999999946e+01 2.517040000000000166e+00 4.163499999999999979e+00 1.131007999999999925e+01 3.710189999999999877e+00 4.856609999999999872e+00 1.861507999999999896e+01 1.321099999999999941e+00 2.442439999999999944e+00 1.709637999999999991e+01 2.909949999999999815e+00 6.400750000000000384e+00 2.224228000000000094e+01 7.049900000000000055e-01 2.565589999999999815e+00 2.197078000000000131e+01 3.378690000000000193e+00 6.881789999999999630e+00 2.760548000000000002e+01 5.200000000000000178e-01 2.853740000000000165e+00 2.760617999999999839e+01 3.440189999999999859e+00 4.764529999999999710e+00 3.337439999999999962e+00 1.776210000000000067e+00 7.862200000000000299e-01 3.079520000000000035e+00 3.660159999999999858e+00 1.652260000000000062e+00 6.824810000000000265e+00 1.293179999999999996e+00 5.477839999999999598e+00 6.950210000000000221e+00 1.420530000000000070e+00 3.015709999999999891e+00 1.214599999999999985e-01 3.528709999999999791e+00 6.788179999999999659e+00 4.227899999999999991e-01 8.959700000000000442e-01 7.204410000000000203e+00 1.388837999999999973e+01 6.553999999999999826e-01 4.874699999999999811e+00 1.345397999999999961e+01 1.151219999999999910e+00 5.184070000000000178e+00 1.652347999999999928e+01 3.380560000000000009e+00 8.728599999999999692e-01 1.643697999999999837e+01 2.725750000000000117e+00 6.458239999999999981e+00 9.974449999999999150e+00 5.735000000000000098e-01 2.615709999999999980e+00 1.046015000000000050e+01 5.993699999999999584e-01 4.543800000000000061e-01 2.358058000000000121e+01 2.522320000000000118e+00 3.872119999999999784e+00 2.293418000000000134e+01 1.411000000000000032e+00 5.495919999999999916e+00 2.680178000000000083e+01 2.740499999999999936e+00 1.622959999999999958e+00 2.636827999999999861e+01 3.709299999999999820e+00 2.460179999999999811e+00 1.959647999999999968e+01 2.653160000000000185e+00 6.831730000000000302e+00 1.960467999999999833e+01
1.558400000000000007e+00 1.901520000000000099e+00 1.862489999999999979e+00 3.638700000000000045e+00 5.494989999999999597e+00 1.066969999999999974e+00 4.082299999999999818e-01 7.203009999999999913e+00 7.749880000000000102e+00 2.888360000000000039e+00 3.506200000000000205e+00 7.685859999999999914e+00 1.198499999999999982e-01 2.469259999999999788e+00 1.114423000000000030e+01 1.890870000000000051e+00 6.537399999999999878e+00 1.143782999999999994e+01 1.375699999999999923e+00 1.395650000000000057e+00 1.764063000000000159e+01 -2.893600000000000061e-01 4.782320000000000348e+00 1.701013000000000019e+01 -3.091200000000000059e-01 1.003500000000000059e+00 2.075343000000000160e+01 2.706370000000000164e+00 4.886940000000000062e+00 2.232162999999999897e+01 2.966209999999999791e+00 2.462610000000000188e+00 2.743922999999999845e+01 9.848000000000000087e-01 5.982529999999999681e+00 2.733873000000000175e+01 2.128550000000000164e+00 1.109839999999999938e+00 4.466370000000000395e+00 4.101359999999999673e+00 6.667530000000000179e+00 3.293670000000000098e+00 6.096599999999999797e-01 2.250389999999999890e+00 6.340539999999999843e+00 2.642689999999999984e+00 5.784519999999999662e+00 6.342089999999999783e+00 3.845889999999999809e+00 7.650400000000000533e-01 2.631000000000000005e-01 1.197920000000000096e+00 4.445009999999999906e+00 2.958903000000000105e+01 3.256899999999999906e+00 2.980939999999999923e+00 1.345482999999999940e+01 1.643639999999999990e+00 7.247279999999999944e+00 1.378273000000000081e+01 3.611600000000000144e+00 7.439059999999999562e+00 1.658763000000000076e+01 1.712849999999999984e+00 3.316930000000000156e+00 1.586273000000000089e+01 1.893680000000000030e+00 1.395780000000000021e+00 9.563230000000000786e+00 3.948069999999999968e+00 5.081929999999999836e+00 1.025900999999999996e+01 2.420499999999999874e-01 6.389140000000000263e+00 2.254602999999999824e+01 2.007490000000000219e+00 2.991449999999999942e+00 2.374812999999999974e+01 7.711099999999999621e-01 9.849799999999999667e-01 2.633522999999999925e+01 3.312330000000000219e+00 4.807620000000000005e+00 2.610563000000000144e+01 2.591300000000000270e-01 3.728070000000000217e+00 2.028792999999999935e+01 1.771779999999999911e+00 7.230509999999999771e+00 1.967502999999999957e+01
5.623200000000000420e-01 5.893349999999999866e+00 3.154230000000000089e+00 2.089469999999999938e+00 1.885869999999999935e+00 1.574940000000000007e+00 3.054079999999999906e+00 7.191800000000000415e-01 7.133230000000000182e+00 1.519430000000000058e+00 4.400949999999999918e+00 7.747279999999999944e+00 3.916300000000000114e+00 2.377120000000000122e+00 1.113687999999999967e+01 1.516049999999999898e+00 6.562470000000000248e+00 1.112407999999999930e+01 3.864170000000000105e+00 2.106920000000000126e+00 1.839508000000000010e+01 2.109309999999999796e+00 6.727100000000000080e+00 1.699368000000000123e+01 2.076639999999999819e+00 4.754300000000000193e-01 2.168957999999999942e+01 2.964339999999999975e+00 4.041920000000000179e+00 2.194697999999999993e+01 3.875319999999999876e+00 2.118009999999999948e+00 2.800537999999999883e+01 2.113609999999999989e+00 5.721479999999999677e+00 2.846358000000000033e+01 3.975699999999999790e-01 1.241430000000000033e+00 3.373060000000000169e+00 2.632449999999999957e+00 4.480430000000000135e+00 3.728699999999999903e+00 3.781060000000000088e+00 3.509790000000000187e+00 6.191980000000000040e+00 1.186169999999999947e+00 6.716020000000000323e+00 6.199499999999999567e+00 3.578930000000000167e+00 2.678400000000000225e-01 3.976999999999999980e-02 9.637299999999999756e-01 4.332429999999999559e+00 4.734200000000000075e-01 4.130620000000000402e+00 2.362299999999999955e-01 1.322537999999999947e+01 1.169859999999999900e+00 5.067969999999999864e+00 1.321738000000000035e+01 1.730860000000000065e+00 2.185939999999999994e+00 1.693098000000000170e+01 4.107129999999999725e+00 5.581789999999999807e+00 1.565127999999999986e+01 1.933210000000000095e+00 1.248790000000000067e+00 9.584600000000000009e+00 3.167940000000000200e+00 5.259439999999999671e+00 9.572129999999999583e+00 1.257319999999999993e+00 5.601180000000000270e+00 2.336367999999999867e+01 3.817569999999999908e+00 1.779590000000000005e+00 2.326877999999999957e+01 1.826780000000000070e+00 1.177810000000000024e+00 2.676348000000000127e+01 4.166070000000000384e+00 4.884559999999999569e+00 2.722447999999999979e+01 6.774299999999999766e-01 4.242449999999999832e+00 2.019257999999999953e+01 5.348399999999999821e-01 7.260150000000000325e+00 1.958838000000000079e+01
1.303730000000000055e+00 1.909859999999999891e+00 1.826400000000000023e+00 2.598279999999999923e+00 5.735549999999999926e+00 2.076620000000000132e+00 2.476249999999999840e+00 5.500000000000000028e-02 5.817549999999999777e+00 5.105800000000000338e-01 3.584639999999999826e+00 6.164620000000000211e+00 2.607299999999999951e+00 7.579769999999999897e+00 1.134891999999999967e+01 6.009200000000000097e-01 3.857029999999999959e+00 1.098101999999999911e+01 1.407389999999999919e+00 6.259710000000000107e+00 1.740162000000000120e+01 3.988329999999999931e+00 1.424409999999999954e+00 1.830181999999999931e+01 3.976189999999999891e+00 9.055900000000000061e-01 2.194902000000000086e+01 2.012469999999999981e+00 4.026069999999999816e+00 2.275141999999999953e+01 -1.160000000000000007e-03 6.618260000000000254e+00 2.805752000000000024e+01 2.670879999999999921e+00 2.878200000000000092e+00 2.791882000000000019e+01 8.593199999999999728e-01 4.116640000000000299e+00 3.495019999999999794e+00 3.084890000000000132e+00 5.593900000000000539e-01 3.370070000000000121e+00 3.042000000000000259e-01 1.082060000000000022e+00 7.178840000000000110e+00 2.834750000000000103e+00 4.930360000000000298e+00 7.052330000000000432e+00 3.271840000000000082e+00 3.115749999999999797e+00 3.956200000000000272e-01 8.811499999999999888e-01 6.930369999999999919e+00 3.871600000000000041e-01 2.342940000000000023e+00 5.887520000000000309e+00 1.351612000000000080e+01 1.059050000000000047e+00 3.859640000000000182e+00 1.372701999999999956e+01 3.554120000000000168e+00 4.759310000000000151e+00 1.681221999999999994e+01 1.216790000000000038e+00 1.095150000000000068e+00 1.621771999999999991e+01 6.149700000000000166e-01 6.454979999999999940e+00 1.007801000000000080e+01 2.788130000000000219e+00 2.768679999999999808e+00 9.945600000000000662e+00 2.030349999999999877e+00 1.173650000000000082e+00 2.362012000000000000e+01 -1.335800000000000043e-01 5.089310000000000223e+00 2.366331999999999880e+01 2.232139999999999791e+00 5.284449999999999648e+00 2.723211999999999833e+01 1.902099999999999902e-01 1.653599999999999959e+00 2.652021999999999835e+01 3.376240000000000130e+00 3.135089999999999932e+00 2.047662000000000049e+01 7.743999999999999495e-02 6.739690000000000403e+00 1.985071999999999903e+01
2.103040000000000020e+00 1.717160000000000020e+00 1.184989999999999988e+00 1.665099999999999913e-01 5.299310000000000187e+00 1.335059999999999913e+00 4.135810000000000208e+00 6.925410000000000288e+00 7.879400000000000404e+00 1.717179999999999929e+00 3.084360000000000213e+00 7.684599999999999653e+00 3.535730000000000040e+00 2.369169999999999998e+00 1.181198000000000015e+01 1.795469999999999899e+00 6.799750000000000405e+00 1.135688000000000031e+01 2.945250000000000146e+00 1.506019999999999914e+00 1.841537999999999897e+01 1.143489999999999895e+00 4.874609999999999665e+00 1.876287999999999911e+01 7.734799999999999454e-01 3.497700000000000253e-01 2.203688000000000002e+01 3.465279999999999916e+00 4.475270000000000081e+00 2.235658000000000101e+01 3.911360000000000170e+00 2.731479999999999908e+00 2.823397999999999897e+01 2.373229999999999951e+00 6.256420000000000314e+00 2.843568000000000140e+01 1.790529999999999955e+00 1.355099999999999916e-01 3.432420000000000027e+00 2.299370000000000136e+00 5.055609999999999715e+00 3.281359999999999832e+00 3.803139999999999965e+00 1.766760000000000108e+00 6.415440000000000254e+00 1.961740000000000039e+00 5.714059999999999917e+00 6.678259999999999863e+00 4.146720000000000184e+00 5.918299999999999672e-01 3.041977999999999938e+01 2.309210000000000207e+00 4.293199999999999683e+00 3.041087999999999880e+01 1.115350000000000064e+00 6.501099999999999657e-01 1.415387999999999913e+01 1.566340000000000066e+00 5.819300000000000139e+00 1.386208000000000062e+01 8.447000000000000064e-01 7.276720000000000077e+00 1.742408000000000001e+01 3.081409999999999982e+00 3.870429999999999815e+00 1.712158000000000158e+01 1.421359999999999957e+00 1.702579999999999982e+00 9.900230000000000530e+00 3.931049999999999933e+00 5.473320000000000185e+00 1.011814000000000036e+01 2.957059999999999800e+00 5.675599999999999534e-01 2.372477999999999909e+01 1.353359999999999896e+00 4.298350000000000115e+00 2.387958000000000069e+01 1.904579999999999940e+00 1.300499999999999989e+00 2.708378000000000085e+01 3.715200000000000169e-01 5.166039999999999743e+00 2.720288000000000039e+01 4.980299999999999727e-01 2.307939999999999880e+00 2.020598000000000027e+01 2.844279999999999919e+00 6.205289999999999750e+00 2.063057999999999836e+01
6.931899999999999729e-01 1.043619999999999992e+00 1.617969999999999908e+00 3.358490000000000197e+00 5.058300000000000018e+00 1.235549999999999926e+00 2.846290000000000209e+00 1.906700000000000061e-01 5.647829999999999906e+00 9.973100000000000298e-01 3.890919999999999934e+00 5.754139999999999588e+00 1.211000000000000076e+00 6.971720000000000361e+00 1.122452999999999967e+01 3.132760000000000211e+00 3.395030000000000214e+00 1.189222999999999963e+01 1.210919999999999996e+00 6.300080000000000346e+00 1.854132999999999853e+01 3.366779999999999884e+00 2.083120000000000083e+00 1.875953000000000159e+01 9.113900000000000334e-01 8.381800000000000361e-01 2.229513000000000034e+01 3.066460000000000186e+00 4.286330000000000418e+00 2.243132999999999910e+01 1.457289999999999974e+00 7.074259999999999771e+00 2.734102999999999994e+01 2.414709999999999912e+00 3.354270000000000085e+00 2.786833000000000027e+01 6.549300000000000122e-01 3.455760000000000165e+00 3.207510000000000083e+00 2.630139999999999922e+00 7.454119999999999635e+00 3.085170000000000190e+00 8.558999999999999941e-01 1.359150000000000080e+00 7.125980000000000203e+00 3.244439999999999991e+00 5.340749999999999886e+00 6.671899999999999942e+00 3.060550000000000104e+00 2.477279999999999927e+00 7.174999999999999434e-02 1.293549999999999978e+00 6.379330000000000389e+00 1.862000000000000113e-02 1.720490000000000075e+00 6.419459999999999944e+00 1.397493000000000052e+01 2.488070000000000004e+00 4.324180000000000135e+00 1.442093000000000025e+01 3.289429999999999854e+00 4.917200000000000237e+00 1.764573000000000036e+01 6.953399999999999581e-01 9.146400000000000086e-01 1.705263000000000062e+01 3.559849999999999959e+00 5.812129999999999797e+00 1.039120999999999917e+01 7.931399999999999562e-01 2.060379999999999878e+00 1.074432999999999971e+01 2.669470000000000010e+00 2.166440000000000143e+00 2.375353000000000137e+01 7.786999999999999478e-01 5.910849999999999937e+00 2.368193000000000126e+01 3.455109999999999904e+00 5.262369999999999770e+00 2.655833000000000155e+01 3.445500000000000229e-01 2.196260000000000101e+00 2.676103000000000165e+01 6.335300000000000376e-01 3.402610000000000134e+00 2.052783000000000158e+01 2.353769999999999918e+00 7.644149999999999778e+00 2.044772999999999996e+01