-9.706390919999999767e+01
-1.034136801500000047e+02
-1.025965930499999956e+02
-1.012565103799999946e+02
-1.039459222299999936e+02
-9.991951792999999782e+01
-1.016545929300000068e+02
-1.036860928600000022e+02
-9.820190825000000245e+01
-1.003380826799999994e+02
-1.027862744100000043e+02
-1.016999965899999978e+02
-1.028477002999999996e+02
-9.795102511000000334e+01
-9.880008825000000172e+01
-9.869912863000000414e+01
-9.817761892000000046e+01
-1.026577414500000032e+02
-9.916580211999999506e+01
-1.007985993100000002e+02
-9.852525434000000359e+01
-1.003980026499999951e+02
-9.766461834999999780e+01
-9.879636342000000582e+01
-1.025386554100000041e+02
-1.019178436800000043e+02
-1.033392989299999982e+02
-1.040513688300000013e+02
-1.013612033699999984e+02
-1.004774740699999995e+02
-1.028059541599999989e+02
-1.027913356199999981e+02
-1.020182136500000070e+02
-1.025080909299999945e+02
-9.863794952000000649e+01
-9.786139665999999693e+01
-1.018207857700000005e+02
-9.970681955000000585e+01
-1.026012528699999962e+02
-9.759207542999999418e+01
-1.039752231800000004e+02
-1.023943623199999990e+02
-1.037010444299999961e+02
-1.034041914999999960e+02
-1.031946133299999957e+02
-1.029882695299999966e+02
-9.979548307000000307e+01
-9.938313268000000278e+01
-1.010347741399999961e+02
-1.038517897600000026e+02
-1.038982244900000040e+02
-1.027745152699999949e+02
-1.003819165099999964e+02
-9.796427558000000602e+01
-1.030626168900000010e+02
-1.034073216400000064e+02
-9.841216013000000373e+01
-9.937800876999999389e+01
-1.032533027399999952e+02
-1.032194561499999992e+02
-1.028332493199999931e+02
-1.000103050099999962e+02
-1.037144680800000032e+02
-1.004584710299999983e+02
-1.016386540200000042e+02
-1.030977569700000060e+02
-9.774173776000000657e+01
-1.015743318100000039e+02
-1.031419219400000031e+02
-1.030133390600000070e+02
-1.033889594799999969e+02
-1.040160591300000021e+02
-9.886502260000000319e+01
-9.953885707000000593e+01
-1.027720551499999999e+02
-1.038823880199999934e+02
-9.870880854000000681e+01
-1.033199840399999943e+02
-9.830789391000000421e+01
-1.021656675800000045e+02
-1.033411632899999972e+02
-1.030776744900000068e+02
-1.027344784099999941e+02
-1.040263211999999982e+02
-1.034320244099999968e+02
-1.017606078599999933e+02
-1.023365880000000061e+02
-9.683761363000000699e+01
-1.018154044000000056e+02
-1.036154489099999978e+02
-1.015845646599999981e+02
-1.046884287099999966e+02
-1.007295405600000038e+02
-1.034959393400000067e+02
-9.784084371000000147e+01
-1.019578546500000016e+02
-9.816313789999999528e+01
-9.806349932000000535e+01
-1.036800075999999962e+02
-1.027483141200000034e+02
