8.042392929000000024e+00 0.000000000000000000e+00 0.000000000000000000e+00 -4.283969498000000264e+00 7.420053352000000046e+00 0.000000000000000000e+00 0.000000000000000000e+00 0.000000000000000000e+00 2.000000000000000000e+01
7.789887373000000004e+00 0.000000000000000000e+00 0.000000000000000000e+00 2.825977745999999957e+00 7.580578995999999847e+00 0.000000000000000000e+00 0.000000000000000000e+00 0.000000000000000000e+00 2.000000000000000000e+01
7.083358955999999651e+00 0.000000000000000000e+00 0.000000000000000000e+00 2.545898747999999934e+00 6.837642369000000109e+00 0.000000000000000000e+00 0.000000000000000000e+00 0.000000000000000000e+00 2.000000000000000000e+01
8.138179812000000624e+00 0.000000000000000000e+00 0.000000000000000000e+00 -3.985034184999999951e+00 6.902282164999999914e+00 0.000000000000000000e+00 0.000000000000000000e+00 0.000000000000000000e+00 2.000000000000000000e+01
8.522454341999999627e+00 0.000000000000000000e+00 0.000000000000000000e+00 -4.278459954999999759e+00 7.410510543000000006e+00 0.000000000000000000e+00 0.000000000000000000e+00 0.000000000000000000e+00 2.000000000000000000e+01
8.037910961999999770e+00 0.000000000000000000e+00 0.000000000000000000e+00 2.778498774000000004e+00 7.421998355999999575e+00 0.000000000000000000e+00 0.000000000000000000e+00 0.000000000000000000e+00 2.000000000000000000e+01
8.021686836000000653e+00 0.000000000000000000e+00 0.000000000000000000e+00 -4.143008875999999674e+00 7.175902375999999805e+00 0.000000000000000000e+00 0.000000000000000000e+00 0.000000000000000000e+00 2.000000000000000000e+01
8.116283166000000548e+00 0.000000000000000000e+00 0.000000000000000000e+00 -4.260626636999999661e+00 7.379622330000000119e+00 0.000000000000000000e+00 0.000000000000000000e+00 0.000000000000000000e+00 2.000000000000000000e+01
8.225180200000000497e+00 0.000000000000000000e+00 0.000000000000000000e+00 2.736346042000000089e+00 7.309398881999999986e+00 0.000000000000000000e+00 0.000000000000000000e+00 0.000000000000000000e+00 2.000000000000000000e+01
7.900797311999999906e+00 0.000000000000000000e+00 0.000000000000000000e+00 -4.098551042999999616e+00 7.098899145999999938e+00 0.000000000000000000e+00 0.000000000000000000e+00 0.000000000000000000e+00 2.000000000000000000e+01
8.221245957000000715e+00 0.000000000000000000e+00 0.000000000000000000e+00 -4.069941233999999852e+00 7.049345500000000264e+00 0.000000000000000000e+00 0.000000000000000000e+00 0.000000000000000000e+00 2.000000000000000000e+01
8.228656963000000601e+00 0.000000000000000000e+00 0.000000000000000000e+00 -4.327808128000000032e+00 7.495984091999999599e+00 0.000000000000000000e+00 0.000000000000000000e+00 0.000000000000000000e+00 2.000000000000000000e+01
7.966469810000000429e+00 0.000000000000000000e+00 0.000000000000000000e+00 -4.109250921000000112e+00 7.117431879999999822e+00 0.000000000000000000e+00 0.000000000000000000e+00 0.000000000000000000e+00 2.000000000000000000e+01
8.131978916999999640e+00 0.000000000000000000e+00 0.000000000000000000e+00 -4.377259609000000218e+00 7.581636577000000266e+00 0.000000000000000000e+00 0.000000000000000000e+00 0.000000000000000000e+00 2.000000000000000000e+01
8.731200459000000080e+00 0.000000000000000000e+00 0.000000000000000000e+00 -4.401237202999999987e+00 7.623166990999999726e+00 0.000000000000000000e+00 0.000000000000000000e+00 0.000000000000000000e+00 2.000000000000000000e+01
8.564766012999999845e+00 0.000000000000000000e+00 0.000000000000000000e+00 -4.258356828000000149e+00 7.375690903999999826e+00 0.000000000000000000e+00 0.000000000000000000e+00 0.000000000000000000e+00 2.000000000000000000e+01
8.103905596000000600e+00 0.000000000000000000e+00 0.000000000000000000e+00 -4.177843561999999622e+00 7.236237828000000150e+00 0.000000000000000000e+00 0.000000000000000000e+00 0.000000000000000000e+00 2.000000000000000000e+01
8.340145183000000628e+00 0.000000000000000000e+00 0.000000000000000000e+00 -4.325071645999999603e+00 7.491244366000000099e+00 0.000000000000000000e+00 0.000000000000000000e+00 0.000000000000000000e+00 2.000000000000000000e+01
8.430854465999999547e+00 0.000000000000000000e+00 0.000000000000000000e+00 -4.147425991999999617e+00 7.183553046000000109e+00 0.000000000000000000e+00 0.000000000000000000e+00 0.000000000000000000e+00 2.000000000000000000e+01
8.025569817999999245e+00 0.000000000000000000e+00 0.000000000000000000e+00 -4.302414752999999870e+00 7.452001475000000319e+00 0.000000000000000000e+00 0.000000000000000000e+00 0.000000000000000000e+00 2.000000000000000000e+01
8.562123142000000797e+00 0.000000000000000000e+00 0.000000000000000000e+00 -4.171455738999999774e+00 7.225173791999999651e+00 0.000000000000000000e+00 0.000000000000000000e+00 0.000000000000000000e+00 2.000000000000000000e+01
8.239168361000000829e+00 0.000000000000000000e+00 0.000000000000000000e+00 -4.089158662000000000e+00 7.082631064000000087e+00 0.000000000000000000e+00 0.000000000000000000e+00 0.000000000000000000e+00 2.000000000000000000e+01
8.146595500000000101e+00 0.000000000000000000e+00 0.000000000000000000e+00 2.821080256000000119e+00 7.535743121000000322e+00 0.000000000000000000e+00 0.000000000000000000e+00 0.000000000000000000e+00 2.000000000000000000e+01
8.643695201999999966e+00 0.000000000000000000e+00 0.000000000000000000e+00 -3.928947243000000089e+00 6.805136724999999664e+00 0.000000000000000000e+00 0.000000000000000000e+00 0.000000000000000000e+00 2.000000000000000000e+01
7.856809441000000227e+00 0.000000000000000000e+00 0.000000000000000000e+00 2.912621757000000144e+00 7.812998297000000036e+00 0.000000000000000000e+00 0.000000000000000000e+00 0.000000000000000000e+00 2.000000000000000000e+01
8.787136427000000083e+00 0.000000000000000000e+00 0.000000000000000000e+00 -4.010087268999999566e+00 6.945675384000000285e+00 0.000000000000000000e+00 0.000000000000000000e+00 0.000000000000000000e+00 2.000000000000000000e+01
8.278704979000000463e+00 0.000000000000000000e+00 0.000000000000000000e+00 -4.318661503000000401e+00 7.480141672000000241e+00 0.000000000000000000e+00 0.000000000000000000e+00 0.000000000000000000e+00 2.000000000000000000e+01
8.701576875000000655e+00 0.000000000000000000e+00 0.000000000000000000e+00 -3.956332666000000220e+00 6.852569673999999722e+00 0.000000000000000000e+00 0.000000000000000000e+00 0.000000000000000000e+00 2.000000000000000000e+01
7.471320254000000105e+00 0.000000000000000000e+00 0.000000000000000000e+00 2.417347010999999934e+00 6.492384805000000370e+00 0.000000000000000000e+00 0.000000000000000000e+00 0.000000000000000000e+00 2.000000000000000000e+01
8.029503156000000530e+00 0.000000000000000000e+00 0.000000000000000000e+00 -3.979247583999999893e+00 6.892259478999999800e+00 0.000000000000000000e+00 0.000000000000000000e+00 0.000000000000000000e+00 2.000000000000000000e+01
7.572766446000000151e+00 0.000000000000000000e+00 0.000000000000000000e+00 2.484911225999999917e+00 6.673845255999999893e+00 0.000000000000000000e+00 0.000000000000000000e+00 0.000000000000000000e+00 2.000000000000000000e+01
8.086686487999999784e+00 0.000000000000000000e+00 0.000000000000000000e+00 -4.374249564000000312e+00 7.576423025000000422e+00 0.000000000000000000e+00 0.000000000000000000e+00 0.000000000000000000e+00 2.000000000000000000e+01
8.627589742999999700e+00 0.000000000000000000e+00 0.000000000000000000e+00 -3.902721071999999847e+00 6.759711661999999954e+00 0.000000000000000000e+00 0.000000000000000000e+00 0.000000000000000000e+00 2.000000000000000000e+01
8.442892092999999321e+00 0.000000000000000000e+00 0.000000000000000000e+00 -3.953956491000000018e+00 6.848454017999999976e+00 0.000000000000000000e+00 0.000000000000000000e+00 0.000000000000000000e+00 2.000000000000000000e+01
8.077271774999999820e+00 0.000000000000000000e+00 0.000000000000000000e+00 -4.306280934000000116e+00 7.458697896000000327e+00 0.000000000000000000e+00 0.000000000000000000e+00 0.000000000000000000e+00 2.000000000000000000e+01
8.344813491000000027e+00 0.000000000000000000e+00 0.000000000000000000e+00 -4.270000819999999919e+00 7.395858891999999685e+00 0.000000000000000000e+00 0.000000000000000000e+00 0.000000000000000000e+00 2.000000000000000000e+01
7.318259806000000367e+00 0.000000000000000000e+00 0.000000000000000000e+00 2.476469953000000057e+00 6.651174125999999909e+00 0.000000000000000000e+00 0.000000000000000000e+00 0.000000000000000000e+00 2.000000000000000000e+01
7.662173690999999565e+00 0.000000000000000000e+00 0.000000000000000000e+00 -4.271513481999999584e+00 7.398478898999999664e+00 0.000000000000000000e+00 0.000000000000000000e+00 0.000000000000000000e+00 2.000000000000000000e+01
7.819188527999999749e+00 0.000000000000000000e+00 0.000000000000000000e+00 -4.167454272999999709e+00 7.218243048999999800e+00 0.000000000000000000e+00 0.000000000000000000e+00 0.000000000000000000e+00 2.000000000000000000e+01
8.146195211000000214e+00 0.000000000000000000e+00 0.000000000000000000e+00 -4.038993958999999911e+00 6.995743242999999723e+00 0.000000000000000000e+00 0.000000000000000000e+00 0.000000000000000000e+00 2.000000000000000000e+01
7.245787138999999932e+00 0.000000000000000000e+00 0.000000000000000000e+00 -3.658362239000000127e+00 6.336469718000000029e+00 0.000000000000000000e+00 0.000000000000000000e+00 0.000000000000000000e+00 2.000000000000000000e+01
8.540932720000000700e+00 0.000000000000000000e+00 0.000000000000000000e+00 2.767815714000000149e+00 7.393461489999999969e+00 0.000000000000000000e+00 0.000000000000000000e+00 0.000000000000000000e+00 2.000000000000000000e+01
8.780374960999999701e+00 0.000000000000000000e+00 0.000000000000000000e+00 -4.216510227999999749e+00 7.303210462000000014e+00 0.000000000000000000e+00 0.000000000000000000e+00 0.000000000000000000e+00 2.000000000000000000e+01
8.452135376999999394e+00 0.000000000000000000e+00 0.000000000000000000e+00 -4.161535075999999833e+00 7.207990698999999779e+00 0.000000000000000000e+00 0.000000000000000000e+00 0.000000000000000000e+00 2.000000000000000000e+01
7.322152405999999836e+00 0.000000000000000000e+00 0.000000000000000000e+00 2.442919638999999865e+00 6.561066435999999946e+00 0.000000000000000000e+00 0.000000000000000000e+00 0.000000000000000000e+00 2.000000000000000000e+01
7.489937459000000075e+00 0.000000000000000000e+00 0.000000000000000000e+00 2.728127649999999793e+00 7.318099795000000185e+00 0.000000000000000000e+00 0.000000000000000000e+00 0.000000000000000000e+00 2.000000000000000000e+01
8.316924570999999489e+00 0.000000000000000000e+00 0.000000000000000000e+00 -3.881860210999999783e+00 6.723579587999999774e+00 0.000000000000000000e+00 0.000000000000000000e+00 0.000000000000000000e+00 2.000000000000000000e+01
8.276464336000000088e+00 0.000000000000000000e+00 0.000000000000000000e+00 -4.305023466999999826e+00 7.456519898999999896e+00 0.000000000000000000e+00 0.000000000000000000e+00 0.000000000000000000e+00 2.000000000000000000e+01
8.018456914999999796e+00 0.000000000000000000e+00 0.000000000000000000e+00 2.715923784000000119e+00 7.285363384000000053e+00 0.000000000000000000e+00 0.000000000000000000e+00 0.000000000000000000e+00 2.000000000000000000e+01
8.346574015999999929e+00 0.000000000000000000e+00 0.000000000000000000e+00 2.762970544999999944e+00 7.411564549999999585e+00 0.000000000000000000e+00 0.000000000000000000e+00 0.000000000000000000e+00 2.000000000000000000e+01
8.258536429999999484e+00 0.000000000000000000e+00 0.000000000000000000e+00 -4.521864322999999963e+00 7.832099305999999928e+00 0.000000000000000000e+00 0.000000000000000000e+00 0.000000000000000000e+00 2.000000000000000000e+01
8.305788943999999674e+00 0.000000000000000000e+00 0.000000000000000000e+00 -4.366117438999999933e+00 7.562337770000000070e+00 0.000000000000000000e+00 0.000000000000000000e+00 0.000000000000000000e+00 2.000000000000000000e+01
8.336526876000000641e+00 0.000000000000000000e+00 0.000000000000000000e+00 -4.085132144000000132e+00 7.075656928999999984e+00 0.000000000000000000e+00 0.000000000000000000e+00 0.000000000000000000e+00 2.000000000000000000e+01
8.708446665000000309e+00 0.000000000000000000e+00 0.000000000000000000e+00 -4.151778667000000311e+00 7.191092100999999737e+00 0.000000000000000000e+00 0.000000000000000000e+00 0.000000000000000000e+00 2.000000000000000000e+01
8.030819598000000781e+00 0.000000000000000000e+00 0.000000000000000000e+00 2.751383899999999993e+00 7.380483810000000311e+00 0.000000000000000000e+00 0.000000000000000000e+00 0.000000000000000000e+00 2.000000000000000000e+01
9.054532452000000120e+00 0.000000000000000000e+00 0.000000000000000000e+00 -3.943677110999999957e+00 6.830649607999999873e+00 0.000000000000000000e+00 0.000000000000000000e+00 0.000000000000000000e+00 2.000000000000000000e+01
8.158561218999999198e+00 0.000000000000000000e+00 0.000000000000000000e+00 -4.163382088999999731e+00 7.211189820000000417e+00 0.000000000000000000e+00 0.000000000000000000e+00 0.000000000000000000e+00 2.000000000000000000e+01
8.031154646999999258e+00 0.000000000000000000e+00 0.000000000000000000e+00 -4.274932866000000331e+00 7.404401445999999609e+00 0.000000000000000000e+00 0.000000000000000000e+00 0.000000000000000000e+00 2.000000000000000000e+01
7.704888409999999688e+00 0.000000000000000000e+00 0.000000000000000000e+00 2.941851905000000045e+00 7.858351500000000378e+00 0.000000000000000000e+00 0.000000000000000000e+00 0.000000000000000000e+00 2.000000000000000000e+01
8.373258022999999994e+00 0.000000000000000000e+00 0.000000000000000000e+00 -4.631495722000000370e+00 8.021986472000000035e+00 0.000000000000000000e+00 0.000000000000000000e+00 0.000000000000000000e+00 2.000000000000000000e+01
8.246179638999999284e+00 0.000000000000000000e+00 0.000000000000000000e+00 -4.115545043000000014e+00 7.128333620000000259e+00 0.000000000000000000e+00 0.000000000000000000e+00 0.000000000000000000e+00 2.000000000000000000e+01
7.712195655000000372e+00 0.000000000000000000e+00 0.000000000000000000e+00 3.143404504999999904e+00 8.432064336999999909e+00 0.000000000000000000e+00 0.000000000000000000e+00 0.000000000000000000e+00 2.000000000000000000e+01
7.968520670000000194e+00 0.000000000000000000e+00 0.000000000000000000e+00 2.449405055000000164e+00 6.578484629000000083e+00 0.000000000000000000e+00 0.000000000000000000e+00 0.000000000000000000e+00 2.000000000000000000e+01
7.503150909000000368e+00 0.000000000000000000e+00 0.000000000000000000e+00 2.573192489000000194e+00 6.910946478999999698e+00 0.000000000000000000e+00 0.000000000000000000e+00 0.000000000000000000e+00 2.000000000000000000e+01
8.123463725000000579e+00 0.000000000000000000e+00 0.000000000000000000e+00 -4.444275237000000267e+00 7.697711057000000245e+00 0.000000000000000000e+00 0.000000000000000000e+00 0.000000000000000000e+00 2.000000000000000000e+01
7.898231083999999846e+00 0.000000000000000000e+00 0.000000000000000000e+00 -4.255706679000000214e+00 7.371100711000000416e+00 0.000000000000000000e+00 0.000000000000000000e+00 0.000000000000000000e+00 2.000000000000000000e+01
8.288061265999999705e+00 0.000000000000000000e+00 0.000000000000000000e+00 -4.040305586999999754e+00 6.998015049000000154e+00 0.000000000000000000e+00 0.000000000000000000e+00 0.000000000000000000e+00 2.000000000000000000e+01
8.811258127000000329e+00 0.000000000000000000e+00 0.000000000000000000e+00 -4.085481797999999998e+00 7.076262546999999792e+00 0.000000000000000000e+00 0.000000000000000000e+00 0.000000000000000000e+00 2.000000000000000000e+01
8.009264825000000698e+00 0.000000000000000000e+00 0.000000000000000000e+00 -4.282005350999999571e+00 7.416651350999999615e+00 0.000000000000000000e+00 0.000000000000000000e+00 0.000000000000000000e+00 2.000000000000000000e+01
8.502864458999999542e+00 0.000000000000000000e+00 0.000000000000000000e+00 -4.187952175000000388e+00 7.253746460000000340e+00 0.000000000000000000e+00 0.000000000000000000e+00 0.000000000000000000e+00 2.000000000000000000e+01
8.897685558999999245e+00 0.000000000000000000e+00 0.000000000000000000e+00 -4.296440547999999637e+00 7.441653846000000350e+00 0.000000000000000000e+00 0.000000000000000000e+00 0.000000000000000000e+00 2.000000000000000000e+01
7.835466300000000217e+00 0.000000000000000000e+00 0.000000000000000000e+00 2.677124155000000005e+00 7.190080738999999888e+00 0.000000000000000000e+00 0.000000000000000000e+00 0.000000000000000000e+00 2.000000000000000000e+01
8.019482655999999210e+00 0.000000000000000000e+00 0.000000000000000000e+00 -4.290152603000000120e+00 7.430762805999999721e+00 0.000000000000000000e+00 0.000000000000000000e+00 0.000000000000000000e+00 2.000000000000000000e+01
8.896190747000000343e+00 0.000000000000000000e+00 0.000000000000000000e+00 -4.345474890000000201e+00 7.526583825000000338e+00 0.000000000000000000e+00 0.000000000000000000e+00 0.000000000000000000e+00 2.000000000000000000e+01
8.029773934999999696e+00 0.000000000000000000e+00 0.000000000000000000e+00 -4.350035809000000420e+00 7.534483567999999742e+00 0.000000000000000000e+00 0.000000000000000000e+00 0.000000000000000000e+00 2.000000000000000000e+01
9.540159693999999746e+00 0.000000000000000000e+00 0.000000000000000000e+00 -3.854298389999999852e+00 6.675841111999999633e+00 0.000000000000000000e+00 0.000000000000000000e+00 0.000000000000000000e+00 2.000000000000000000e+01
8.927442792000000793e+00 0.000000000000000000e+00 0.000000000000000000e+00 -4.242093686999999669e+00 7.347522314999999971e+00 0.000000000000000000e+00 0.000000000000000000e+00 0.000000000000000000e+00 2.000000000000000000e+01
8.261457354999999225e+00 0.000000000000000000e+00 0.000000000000000000e+00 -3.983903801999999938e+00 6.900324283999999864e+00 0.000000000000000000e+00 0.000000000000000000e+00 0.000000000000000000e+00 2.000000000000000000e+01
8.180887086000000252e+00 0.000000000000000000e+00 0.000000000000000000e+00 -4.260773858000000303e+00 7.379877323999999739e+00 0.000000000000000000e+00 0.000000000000000000e+00 0.000000000000000000e+00 2.000000000000000000e+01
8.287038652999999755e+00 0.000000000000000000e+00 0.000000000000000000e+00 -4.245925075999999798e+00 7.354158476000000277e+00 0.000000000000000000e+00 0.000000000000000000e+00 0.000000000000000000e+00 2.000000000000000000e+01
7.931716701000000036e+00 0.000000000000000000e+00 0.000000000000000000e+00 -4.116862775999999613e+00 7.130615999999999843e+00 0.000000000000000000e+00 0.000000000000000000e+00 0.000000000000000000e+00 2.000000000000000000e+01
8.244479429000000081e+00 0.000000000000000000e+00 0.000000000000000000e+00 -4.087565027000000129e+00 7.079870805999999739e+00 0.000000000000000000e+00 0.000000000000000000e+00 0.000000000000000000e+00 2.000000000000000000e+01
7.976956122999999899e+00 0.000000000000000000e+00 0.000000000000000000e+00 -4.271167207000000410e+00 7.397879134000000079e+00 0.000000000000000000e+00 0.000000000000000000e+00 0.000000000000000000e+00 2.000000000000000000e+01
8.795279157999999597e+00 0.000000000000000000e+00 0.000000000000000000e+00 -4.165239299999999645e+00 7.214406603999999668e+00 0.000000000000000000e+00 0.000000000000000000e+00 0.000000000000000000e+00 2.000000000000000000e+01
8.011016395000000401e+00 0.000000000000000000e+00 0.000000000000000000e+00 2.796712863999999854e+00 7.502077051999999746e+00 0.000000000000000000e+00 0.000000000000000000e+00 0.000000000000000000e+00 2.000000000000000000e+01
7.926310953999999853e+00 0.000000000000000000e+00 0.000000000000000000e+00 -4.129093091999999743e+00 7.151799529999999905e+00 0.000000000000000000e+00 0.000000000000000000e+00 0.000000000000000000e+00 2.000000000000000000e+01
8.104261249000000333e+00 0.000000000000000000e+00 0.000000000000000000e+00 -3.938771940000000082e+00 6.822153602000000205e+00 0.000000000000000000e+00 0.000000000000000000e+00 0.000000000000000000e+00 2.000000000000000000e+01
8.500142980999999764e+00 0.000000000000000000e+00 0.000000000000000000e+00 -4.038344397999999558e+00 6.994618170999999940e+00 0.000000000000000000e+00 0.000000000000000000e+00 0.000000000000000000e+00 2.000000000000000000e+01
8.710172847000000829e+00 0.000000000000000000e+00 0.000000000000000000e+00 -4.264054781999999655e+00 7.385560049999999599e+00 0.000000000000000000e+00 0.000000000000000000e+00 0.000000000000000000e+00 2.000000000000000000e+01
7.447912101000000007e+00 0.000000000000000000e+00 0.000000000000000000e+00 2.408278049000000198e+00 6.468027857000000047e+00 0.000000000000000000e+00 0.000000000000000000e+00 0.000000000000000000e+00 2.000000000000000000e+01
8.149152907999999584e+00 0.000000000000000000e+00 0.000000000000000000e+00 -4.086928952000000059e+00 7.078769093000000012e+00 0.000000000000000000e+00 0.000000000000000000e+00 0.000000000000000000e+00 2.000000000000000000e+01
7.273851280999999780e+00 0.000000000000000000e+00 0.000000000000000000e+00 -4.048628426999999697e+00 7.012430632000000053e+00 0.000000000000000000e+00 0.000000000000000000e+00 0.000000000000000000e+00 2.000000000000000000e+01
8.575946258000000100e+00 0.000000000000000000e+00 0.000000000000000000e+00 -3.804698013999999961e+00 6.589930734000000179e+00 0.000000000000000000e+00 0.000000000000000000e+00 0.000000000000000000e+00 2.000000000000000000e+01
7.707101482999999753e+00 0.000000000000000000e+00 0.000000000000000000e+00 -4.297781998999999686e+00 7.443977309000000098e+00 0.000000000000000000e+00 0.000000000000000000e+00 0.000000000000000000e+00 2.000000000000000000e+01
8.033373189000000636e+00 0.000000000000000000e+00 0.000000000000000000e+00 -4.017014703000000075e+00 6.957674052999999859e+00 0.000000000000000000e+00 0.000000000000000000e+00 0.000000000000000000e+00 2.000000000000000000e+01
8.308989854000000008e+00 0.000000000000000000e+00 0.000000000000000000e+00 -4.130584728999999733e+00 7.154383121999999595e+00 0.000000000000000000e+00 0.000000000000000000e+00 0.000000000000000000e+00 2.000000000000000000e+01
8.577950777999999943e+00 0.000000000000000000e+00 0.000000000000000000e+00 -4.201016820000000429e+00 7.276375089000000074e+00 0.000000000000000000e+00 0.000000000000000000e+00 0.000000000000000000e+00 2.000000000000000000e+01
7.262975523999999794e+00 0.000000000000000000e+00 0.000000000000000000e+00 -3.713167552999999899e+00 6.431395314000000418e+00 0.000000000000000000e+00 0.000000000000000000e+00 0.000000000000000000e+00 2.000000000000000000e+01
8.325685384999999883e+00 0.000000000000000000e+00 0.000000000000000000e+00 -3.780787913000000167e+00 6.548517220999999999e+00 0.000000000000000000e+00 0.000000000000000000e+00 0.000000000000000000e+00 2.000000000000000000e+01
8.687272765999999535e+00 0.000000000000000000e+00 0.000000000000000000e+00 -4.213510475999999727e+00 7.298014738000000001e+00 0.000000000000000000e+00 0.000000000000000000e+00 0.000000000000000000e+00 2.000000000000000000e+01
