-3.002780000000000005e+00 6.742180000000000284e+00 1.123620000000000019e+01 -1.434469999999999912e+00 3.323700000000000099e+00 1.192820000000000036e+01 8.945600000000000218e-01 6.885849999999999582e+00 1.182360000000000078e+01 2.366220000000000212e+00 2.957530000000000214e+00 1.176570000000000071e+01 3.908099999999999907e-01 1.744879999999999987e+00 1.548160000000000025e+01 -1.386519999999999975e+00 5.209179999999999922e+00 1.599280000000000079e+01 4.480220000000000091e+00 1.201259999999999994e+00 1.549590000000000067e+01 2.788139999999999841e+00 5.901399999999999757e+00 1.774650000000000105e+01 2.721060000000000034e+00 5.426110000000000433e+00 1.069040000000000035e+01 4.251210000000000377e+00 1.647100000000000009e+00 1.067670000000000030e+01 -1.018429999999999946e+00 5.701990000000000336e+00 1.017670000000000030e+01 9.350999999999999590e-02 1.639920000000000044e+00 1.035590000000000011e+01 6.073600000000000110e-01 4.028710000000000235e+00 1.376319999999999943e+01 2.195660000000000167e+00 6.870000000000000238e-03 1.467149999999999999e+01 4.201389999999999958e+00 3.521910000000000096e+00 1.389649999999999963e+01 6.558980000000000032e+00 2.061999999999999944e-02 1.383029999999999937e+01 6.885999999999999899e-01 1.198819999999999997e+00 1.814000000000000057e+01 -1.468970000000000109e+00 2.880310000000000148e+00 1.735889999999999844e+01 1.252399999999999902e-01 6.939759999999999707e+00 1.773600000000000065e+01 2.518619999999999859e+00 8.792999999999999428e-02 1.904370000000000118e+01
4.192940000000000111e+00 7.049850000000000172e+00 1.094009999999999927e+01 5.213260000000000005e+00 3.751300000000000079e+00 1.029460000000000086e+01 8.680419999999999803e+00 7.177719999999999878e+00 1.098070000000000057e+01 8.742430000000000589e+00 4.549549999999999983e+00 1.337570000000000014e+01 3.081809999999999938e+00 1.022939999999999960e+00 1.351159999999999961e+01 6.651290000000000369e+00 2.474279999999999813e+00 1.640269999999999939e+01 5.407809999999999562e+00 5.891949999999999577e+00 1.868779999999999930e+01 9.236219999999999430e+00 4.474129999999999718e+00 1.794900000000000162e+01 2.461689999999999934e+00 4.713440000000000296e+00 1.056600000000000072e+01 3.419919999999999849e+00 1.431669999999999998e+00 1.075919999999999987e+01 6.434129999999999683e+00 5.819130000000000358e+00 9.642010000000000858e+00 7.024160000000000181e+00 1.814589999999999925e+00 9.501839999999999620e+00 6.525940000000000296e+00 3.171769999999999978e+00 1.365150000000000041e+01 3.865810000000000191e+00 7.024280000000000079e+00 1.329909999999999926e+01 2.995569999999999844e+00 3.369099999999999984e+00 1.445930000000000071e+01 8.306639999999999802e+00 7.190500000000000114e+00 1.377340000000000053e+01 6.940809999999999924e+00 5.232999999999999652e+00 1.668159999999999954e+01 1.002839999999999954e+00 1.957119999999999971e+00 1.811510000000000176e+01 8.628550000000000608e+00 5.430640000000000356e+00 1.133099999999999941e-01 1.004406999999999961e+01 6.975640000000000285e+00 1.879850000000000065e+01
1.558840000000000003e+00 5.781199999999999672e-01 1.246850000000000058e+01 5.271309999999999718e+00 4.173429999999999751e+00 9.492599999999999483e+00 4.275710000000000122e+00 5.041680000000000383e+00 5.163280000000000314e+00 1.844109999999999916e+00 4.902700000000000280e+00 9.171640000000000015e+00 7.368879999999999875e+00 3.646279999999999966e+00 1.610399999999999920e+01 3.303650000000000198e+00 2.685799999999999854e-01 1.596219999999999928e+01 6.220119999999999649e+00 1.555190000000000072e+00 7.031159999999999854e+00 3.637830000000000119e+00 3.219269999999999854e+00 1.356419999999999959e+01 4.605979999999999741e+00 6.451999999999999402e-02 8.755620000000000402e+00 3.697430000000000216e+00 6.154980000000000118e+00 1.032929999999999993e+01 3.578710000000000058e+00 1.967989999999999906e+00 1.128149999999999942e+01 4.043409999999999727e+00 3.527359999999999829e+00 7.447390000000000398e+00 7.575969999999999871e+00 2.830200000000000049e+00 9.439610000000000056e+00 5.361699999999999910e+00 5.409580000000000055e+00 1.388589999999999947e+01 5.212589999999999613e+00 1.861329999999999929e+00 1.498579999999999934e+01 8.183130000000000237e+00 3.371129999999999960e+00 1.343510000000000026e+01 6.049310000000000187e+00 2.994870000000000143e+00 4.540079999999999671e+00 1.395629999999999926e+00 1.719279999999999919e+00 1.727499999999999858e+01 7.356069999999999887e+00 7.803700000000000081e-01 4.806750000000000078e+00 6.093650000000000233e+00 5.160969999999999835e+00 1.774579999999999913e+01
2.433059999999999778e+00 1.562959999999999905e+00 1.125869999999999926e+01 1.597000000000000156e-02 5.071649999999999991e+00 1.221570000000000000e+01 6.783979999999999677e+00 1.419720000000000093e+00 1.124450000000000038e+01 4.396980000000000111e+00 4.724779999999999980e+00 1.195229999999999926e+01 4.153769999999999740e+00 5.238139999999999574e+00 1.879410000000000025e+01 5.781410000000000160e+00 3.518079999999999874e+00 1.473189999999999955e+01 -3.892800000000000149e-01 5.487669999999999604e+00 1.769200000000000017e+01 1.750210000000000043e+00 3.080600000000000005e+00 1.535100000000000087e+01 4.244800000000000240e-01 1.383999999999999987e-02 1.019130000000000003e+01 -1.539719999999999978e+00 4.020649999999999835e+00 1.034769999999999968e+01 4.555119999999999614e+00 2.691399999999999904e-01 1.035379999999999967e+01 2.155460000000000154e+00 4.037139999999999951e+00 1.037100000000000044e+01 7.231729999999999769e+00 1.537390000000000034e+00 1.395229999999999926e+01 -2.145249999999999879e+00 5.863089999999999691e+00 1.373450000000000060e+01 3.566860000000000142e+00 2.379379999999999828e+00 1.353250000000000064e+01 1.196409999999999973e+00 5.384129999999999860e+00 1.468040000000000056e+01 1.869269999999999987e+00 4.789200000000000124e-01 1.830870000000000175e+01 6.145539999999999559e+00 3.399010000000000087e+00 1.745540000000000092e+01 3.518990000000000062e+00 1.444120000000000070e+00 1.664130000000000109e+01 1.716469999999999940e+00 4.187780000000000058e+00 1.813560000000000016e+01
1.976669999999999927e+00 3.281800000000000272e-01 1.120899999999999963e+01 -1.012600000000000028e-01 4.438240000000000407e+00 1.158919999999999995e+01 6.329530000000000101e+00 2.157000000000000028e-01 1.155349999999999966e+01 4.483089999999999797e+00 4.144560000000000244e+00 1.129260000000000019e+01 3.091099999999999959e-01 3.638700000000000268e-01 1.791870000000000118e+01 5.910249999999999559e+00 4.102730000000000210e+00 1.846059999999999945e+01 4.214599999999999902e+00 1.889950000000000019e+00 1.447160000000000046e+01 1.932749999999999968e+00 4.786100000000000243e+00 1.507620000000000005e+01 4.074499999999999567e+00 6.544240000000000279e+00 9.979400000000000048e+00 6.754730000000000345e+00 2.874600000000000044e+00 1.048060000000000080e+01 -1.503299999999999914e-01 6.864340000000000330e+00 1.042309999999999981e+01 2.144509999999999916e+00 3.137809999999999988e+00 1.059280000000000044e+01 -4.071400000000000019e-01 4.010530000000000150e+00 1.408869999999999933e+01 1.919960000000000111e+00 3.765700000000000158e-01 1.374039999999999928e+01 4.345430000000000348e+00 4.452090000000000103e+00 1.403759999999999941e+01 6.435380000000000322e+00 2.093599999999999905e-01 1.424230000000000018e+01 3.377829999999999888e+00 2.891620000000000079e+00 1.688319999999999865e+01 -3.288250000000000117e+00 6.618019999999999570e+00 3.873000000000000054e-02 -2.800000000000000058e-02 2.403690000000000104e+00 1.921340000000000003e+01 -3.286119999999999930e+00 5.861640000000000406e+00 1.647409999999999997e+01
1.968080000000000052e+00 3.285299999999999887e+00 1.118299999999999983e+01 6.348300000000000054e+00 5.392299999999999649e+00 1.111280000000000001e+01 6.778979999999999784e+00 9.304799999999999738e-01 1.309820000000000029e+01 2.473910000000000053e+00 6.325490000000000279e+00 1.083339999999999925e+01 2.060950000000000060e+00 8.315999999999999781e-02 1.337710000000000043e+01 5.467959999999999710e+00 4.139929999999999666e+00 1.662150000000000105e+01 4.212040000000000006e+00 1.973799999999999999e-01 1.699709999999999965e+01 5.681199999999999584e+00 5.287320000000000242e+00 1.988510000000000133e+01 7.481569999999999609e+00 1.836009999999999920e+00 1.046780000000000044e+01 4.324499999999999567e+00 4.260139999999999816e+00 1.041060000000000052e+01 2.487629999999999786e+00 5.184199999999999919e-01 1.071020000000000039e+01 8.838060000000000471e+00 4.921750000000000291e+00 9.702819999999999112e+00 1.542359999999999953e+00 2.705740000000000034e+00 1.370449999999999946e+01 7.377729999999999677e+00 5.831260000000000332e+00 1.357380000000000031e+01 4.876949999999999896e+00 1.911370000000000013e+00 1.483740000000000059e+01 2.823479999999999990e+00 5.882080000000000197e+00 1.340850000000000009e+01 9.232609999999999317e+00 5.355059999999999931e+00 1.749859999999999971e+01 4.810139999999999638e+00 2.397899999999999920e+00 1.838860000000000028e+01 7.703920000000000101e+00 3.697550000000000114e+00 1.834619999999999962e+01 4.507249999999999979e+00 6.648659999999999570e+00 1.684769999999999968e+01
1.740809999999999969e+00 1.269789999999999974e+00 1.209779999999999944e+01 -1.875199999999999922e-01 5.065159999999999663e+00 1.123659999999999926e+01 5.614449999999999719e+00 1.488099999999999978e+00 1.085410000000000075e+01 4.074480000000000324e+00 4.636110000000000397e+00 1.232949999999999946e+01 7.306040000000000312e+00 1.661799999999999944e-01 1.584060000000000024e+01 5.483310000000000350e+00 3.526819999999999844e+00 1.622319999999999851e+01 4.602839999999999598e+00 1.389600000000000002e-01 1.833950000000000102e+01 2.399280000000000079e+00 2.753140000000000143e+00 1.549929999999999986e+01 3.539649999999999963e+00 7.086289999999999978e+00 1.115910000000000046e+01 5.447750000000000092e+00 4.009870000000000267e+00 1.028289999999999971e+01 3.692919999999999980e+00 1.762299999999999978e-01 9.772460000000000591e+00 1.993360000000000021e+00 3.571940000000000115e+00 1.025590000000000046e+01 -4.712999999999999828e-02 1.992699999999999916e+00 1.426309999999999967e+01 -1.478189999999999893e+00 5.390559999999999796e+00 1.359019999999999939e+01 4.048449999999999882e+00 2.051820000000000199e+00 1.328410000000000046e+01 2.140369999999999884e+00 5.070409999999999862e+00 1.397540000000000049e+01 4.391429999999999723e+00 5.780789999999999651e+00 1.753440000000000154e+01 6.762970000000000148e+00 2.065440000000000165e+00 1.767350000000000065e+01 2.982089999999999907e+00 2.455210000000000115e+00 1.773969999999999914e+01 2.794280000000000097e+00 5.947250000000000369e+00 1.938990000000000080e+01
2.886750000000000149e+00 7.677599999999999980e-01 1.068159999999999954e+01 6.343999999999999639e-01 4.918730000000000047e+00 1.001779999999999937e+01 7.101180000000000270e+00 8.616000000000000325e-01 1.086580000000000013e+01 4.782040000000000290e+00 4.778789999999999871e+00 1.100849999999999973e+01 -3.229340000000000099e+00 7.214769999999999683e+00 1.466269999999999918e+01 -1.598200000000000065e+00 3.576639999999999819e+00 1.440399999999999991e+01 1.003039999999999932e+00 7.194729999999999848e+00 1.434890000000000043e+01 4.430589999999999584e+00 5.841470000000000162e+00 4.072289999999999743e+00 -3.581739999999999924e+00 7.308989999999999654e+00 9.281010000000000204e+00 -1.499940000000000051e+00 3.317180000000000017e+00 9.446600000000000108e+00 4.798680000000000057e+00 3.577999999999999931e-02 9.120340000000000558e+00 2.708639999999999937e+00 3.284980000000000011e+00 9.701280000000000570e+00 3.211800000000000210e-01 2.411459999999999937e+00 1.293050000000000033e+01 -1.170409999999999950e+00 6.200490000000000279e+00 1.258060000000000045e+01 4.490820000000000256e+00 2.239510000000000112e+00 1.344679999999999964e+01 2.629239999999999799e+00 5.842290000000000205e+00 1.293030000000000079e+01 -2.702179999999999804e+00 4.791050000000000253e+00 6.184300000000000352e+00 -1.574659999999999949e+00 5.788219999999999921e+00 1.609669999999999845e+01 6.996529999999999916e+00 9.096199999999999841e-01 1.605460000000000065e+01 -1.599520000000000053e+00 3.543890000000000207e+00 4.563170000000000393e+00
9.977000000000000313e-01 2.389850000000000030e+00 1.056680000000000064e+01 6.400929999999999787e+00 5.177109999999999879e+00 1.134529999999999994e+01 7.187839999999999563e+00 1.021330000000000071e+00 1.371100000000000030e+01 2.907910000000000217e+00 5.904659999999999798e+00 1.104110000000000014e+01 2.547120000000000051e+00 2.409100000000000130e-01 1.335260000000000069e+01 5.752159999999999940e+00 4.327099999999999724e+00 1.649289999999999878e+01 4.179369999999999585e+00 5.692700000000000538e-01 1.694979999999999976e+01 6.393169999999999575e+00 3.944799999999999862e+00 1.979119999999999990e+01 6.820260000000000211e+00 1.103509999999999991e+00 1.115029999999999966e+01 4.435360000000000191e+00 4.126269999999999882e+00 1.016130000000000067e+01 2.592210000000000125e+00 1.724700000000000122e-01 1.038180000000000014e+01 8.509019999999999584e+00 4.972819999999999574e+00 9.457599999999999341e+00 1.568869999999999987e+00 2.578660000000000174e+00 1.384290000000000020e+01 7.084190000000000431e+00 5.741259999999999586e+00 1.369190000000000040e+01 5.314499999999999780e+00 2.132029999999999870e+00 1.519180000000000064e+01 3.130380000000000162e+00 5.873990000000000045e+00 1.375229999999999997e+01 9.541510000000000602e+00 6.169240000000000279e+00 1.710249999999999915e+01 3.874530000000000030e+00 3.835510000000000197e+00 1.830440000000000111e+01 8.027359999999999829e+00 4.306670000000000442e+00 1.773339999999999961e+01 4.633160000000000167e+00 6.695219999999999949e+00 1.691949999999999932e+01
1.986830000000000096e+00 2.326670000000000016e+00 1.145850000000000080e+01 -7.221199999999999841e-01 5.689409999999999634e+00 1.039850000000000030e+01 5.623770000000000380e+00 1.870749999999999913e+00 9.345750000000000668e+00 3.561090000000000089e+00 5.775619999999999976e+00 9.863540000000000418e+00 6.094960000000000377e+00 1.055260000000000087e+00 1.414209999999999923e+01 4.672469999999999679e+00 4.937140000000000306e+00 1.476980000000000004e+01 9.565799999999999859e-01 3.178630000000000067e+00 6.640060000000000073e+00 9.950700000000000101e-01 4.419170000000000265e+00 1.465549999999999997e+01 7.387000000000000510e-02 1.060570000000000013e+00 8.501519999999999300e+00 -2.273130000000000095e+00 4.589590000000000281e+00 8.433920000000000528e+00 3.257120000000000015e+00 1.051150000000000029e+00 9.268700000000000827e+00 1.333199999999999941e+00 4.379809999999999981e+00 9.556940000000000879e+00 -9.370100000000000096e-01 2.292110000000000092e+00 1.178899999999999970e+01 -2.765480000000000160e+00 6.251420000000000421e+00 1.239579999999999949e+01 3.221229999999999816e+00 2.428290000000000060e+00 1.434079999999999977e+01 4.626199999999999757e-01 6.157060000000000421e+00 1.302469999999999928e+01 5.932140000000000413e+00 3.390599999999999725e-01 6.528880000000000017e+00 3.048439999999999817e+00 6.345399999999999707e+00 1.631569999999999965e+01 -1.244169999999999998e+00 2.164689999999999781e+00 4.821489999999999831e+00 -1.365329999999999933e+00 3.242789999999999839e+00 1.558239999999999981e+01
3.429949999999999832e+00 1.563819999999999988e+00 1.107269999999999932e+01 8.705800000000000205e-01 4.797080000000000233e+00 1.047460000000000058e+01 7.147160000000000402e+00 1.064810000000000034e+00 1.118159999999999954e+01 -2.643689999999999873e+00 5.148109999999999964e+00 1.107290000000000063e+01 -3.371459999999999901e+00 6.781380000000000408e+00 1.517789999999999928e+01 -8.929200000000000470e-01 3.396799999999999820e+00 1.468290000000000006e+01 4.273880000000000123e+00 6.171699999999999964e-01 1.488100000000000023e+01 2.994979999999999976e+00 3.161979999999999791e+00 4.386219999999999786e+00 1.204339999999999966e+00 1.428999999999999992e-01 9.742190000000000794e+00 -1.257830000000000004e+00 3.382280000000000175e+00 9.632839999999999847e+00 5.291500000000000092e+00 2.179399999999999948e-01 9.574659999999999727e+00 3.137080000000000091e+00 3.741940000000000044e+00 9.646000000000000796e+00 2.125869999999999926e+00 1.890949999999999909e+00 1.408849999999999980e+01 3.216600000000000015e-01 5.261779999999999902e+00 1.297850000000000037e+01 5.637819999999999609e+00 2.200639999999999930e+00 1.304320000000000057e+01 4.161360000000000170e+00 5.935459999999999958e+00 1.291009999999999991e+01 4.878949999999999676e+00 2.912710000000000132e+00 2.107409999999999783e+00 -1.302559999999999940e+00 5.562979999999999592e+00 1.618880000000000052e+01 6.935170000000000279e+00 1.171030000000000015e+00 1.627969999999999828e+01 2.921190000000000175e+00 4.160300000000000331e+00 1.973629999999999995e+00
2.507969999999999811e+00 1.465980000000000061e+00 1.187920000000000087e+01 4.324600000000000111e-01 4.989709999999999646e+00 1.203749999999999964e+01 6.500560000000000116e+00 1.185780000000000056e+00 1.194560000000000066e+01 4.602610000000000312e+00 5.264630000000000365e+00 1.163840000000000074e+01 7.203850000000000087e+00 7.711299999999999821e-01 1.603059999999999974e+01 5.842819999999999681e+00 3.910950000000000149e+00 1.481329999999999991e+01 -1.597769999999999913e+00 7.009920000000000151e+00 1.750809999999999889e+01 2.440819999999999990e+00 4.167749999999999844e+00 1.563669999999999938e+01 3.525099999999999900e-01 2.409199999999999953e-01 1.055369999999999919e+01 -1.750189999999999912e+00 3.634469999999999867e+00 1.094960000000000022e+01 2.161399999999999988e-01 7.471119999999999983e+00 1.075420000000000087e+01 2.513570000000000082e+00 3.779679999999999929e+00 1.071059999999999945e+01 -4.391999999999999793e-01 2.410099999999999909e+00 1.415360000000000085e+01 -2.776139999999999830e+00 6.385040000000000049e+00 1.375210000000000043e+01 3.508280000000000065e+00 2.201649999999999885e+00 1.437090000000000067e+01 2.302369999999999806e+00 6.171929999999999694e+00 1.383039999999999914e+01 6.850000000000000186e-03 7.944799999999999640e-01 1.893680000000000163e+01 5.014910000000000423e+00 4.231589999999999741e+00 1.709410000000000096e+01 1.389950000000000019e+00 5.303490000000000038e+00 1.772269999999999968e+01 7.744299999999999518e-01 2.988020000000000120e+00 1.744739999999999824e+01
1.526289999999999925e+00 1.832899999999999974e+00 1.133869999999999933e+01 -4.043999999999999817e-01 5.379660000000000331e+00 1.231220000000000070e+01 5.492799999999999905e+00 1.968120000000000092e+00 1.177079999999999949e+01 3.376510000000000122e+00 5.467050000000000409e+00 1.141099999999999959e+01 -3.367230000000000167e+00 6.617969999999999686e+00 1.713729999999999976e+01 6.129629999999999690e+00 2.984659999999999869e+00 1.629009999999999891e+01 -3.676999999999999713e-02 6.757200000000000095e+00 1.607479999999999976e+01 1.740769999999999929e+00 3.385099999999999998e+00 1.507419999999999938e+01 7.341120000000000090e+00 5.298399999999999777e-01 1.011359999999999992e+01 -2.435290000000000177e+00 4.281920000000000393e+00 1.070940000000000047e+01 3.616709999999999869e+00 3.707599999999999785e-01 1.061560000000000059e+01 1.284000000000000030e+00 4.435629999999999740e+00 1.044219999999999970e+01 -1.057099999999999984e-01 2.071750000000000203e+00 1.349579999999999913e+01 -2.162929999999999797e+00 6.013169999999999682e+00 1.461739999999999995e+01 4.062260000000000204e+00 2.043369999999999909e+00 1.438700000000000045e+01 2.061389999999999834e+00 6.126310000000000144e+00 1.375229999999999997e+01 1.681850000000000067e+00 5.211839999999999584e+00 1.722749999999999915e+01 1.545700000000000074e+00 2.250589999999999868e+00 1.752570000000000050e+01 4.242600000000000371e+00 4.124999999999999778e-01 1.858399999999999963e+01 3.391230000000000189e+00 2.485069999999999890e+00 1.895840000000000103e+01
2.129199999999999982e+00 1.622649999999999926e+00 1.193379999999999974e+01 -4.529999999999999999e-02 5.658640000000000114e+00 1.223809999999999931e+01 6.197680000000000078e+00 1.718059999999999921e+00 1.152299999999999969e+01 3.415799999999999947e+00 5.251909999999999634e+00 1.158840000000000003e+01 3.896000000000000157e-02 1.972200000000000064e-01 1.616029999999999944e+01 5.760419999999999874e+00 3.248709999999999987e+00 1.541089999999999982e+01 2.529100000000000237e-01 7.569499999999999673e+00 1.540189999999999948e+01 1.557330000000000103e+00 2.981809999999999850e+00 1.585210000000000008e+01 9.833000000000000074e-02 2.336399999999999866e-01 1.097930000000000028e+01 -2.279999999999999805e+00 4.119349999999999845e+00 1.107789999999999964e+01 4.059110000000000440e+00 2.561700000000000088e-01 1.080480000000000018e+01 1.378419999999999979e+00 3.797940000000000094e+00 1.064659999999999940e+01 -4.294499999999999984e-01 2.424780000000000157e+00 1.378030000000000044e+01 -1.619920000000000027e+00 5.903769999999999740e+00 1.467099999999999937e+01 3.728089999999999904e+00 2.381170000000000009e+00 1.406610000000000049e+01 1.889189999999999925e+00 5.783339999999999925e+00 1.385260000000000069e+01 1.419489999999999919e+00 5.937459999999999738e+00 1.741509999999999891e+01 -1.717230000000000034e+00 3.125389999999999890e+00 1.770499999999999829e+01 5.452280000000000015e+00 1.094479999999999897e+00 1.829769999999999897e+01 2.429450000000000109e+00 4.701399999999999579e+00 1.897149999999999892e+01
-1.267989999999999950e+00 4.957530000000000214e+00 1.084229999999999983e+01 9.100599999999999801e-01 1.433780000000000054e+00 1.130359999999999943e+01 3.021069999999999922e+00 4.953030000000000044e+00 1.135260000000000069e+01 5.278780000000000250e+00 8.343000000000000416e-01 1.103880000000000017e+01 1.550589999999999913e+00 3.555180000000000007e+00 2.465240000000000098e+00 5.348329999999999806e+00 3.461019999999999985e+00 1.528420000000000023e+01 8.782900000000000151e-01 3.143810000000000215e+00 1.514540000000000042e+01 2.935869999999999980e+00 7.438159999999999883e+00 1.447589999999999932e+01 5.180039999999999978e+00 3.522769999999999957e+00 1.041810000000000080e+01 7.654749999999999943e+00 9.661999999999999755e-02 9.956450000000000244e+00 1.315360000000000085e+00 3.652109999999999967e+00 9.799360000000000070e+00 2.855910000000000171e+00 2.449999999999999921e-03 9.869619999999999393e+00 9.146100000000000341e-01 9.911799999999999500e-01 1.372300000000000075e+01 -1.327960000000000029e+00 4.592389999999999972e+00 1.356310000000000038e+01 5.184179999999999566e+00 6.692200000000000371e-01 1.348230000000000040e+01 3.011699999999999822e+00 4.771720000000000184e+00 1.433489999999999931e+01 2.520700000000000163e+00 4.847229999999999706e+00 1.983370000000000033e+01 3.240000000000000102e-01 4.331959999999999589e+00 1.406300000000000050e-01 -6.505499999999999616e-01 2.600550000000000139e+00 1.755430000000000135e+01 7.843149999999999622e+00 3.153599999999999737e-01 1.698369999999999891e+01
-1.418560000000000043e+00 4.542880000000000251e+00 1.108549999999999969e+01 8.821799999999999642e-01 1.057989999999999986e+00 1.098300000000000054e+01 2.750300000000000189e+00 4.746190000000000353e+00 1.112420000000000009e+01 5.608089999999999797e+00 4.418900000000000050e-01 1.119570000000000043e+01 -2.002899999999999958e-01 2.261579999999999924e+00 2.642770000000000064e+00 5.099330000000000140e+00 3.646220000000000017e+00 1.388380000000000081e+01 8.729900000000000437e-01 3.434159999999999879e+00 1.547560000000000002e+01 7.220060000000000144e+00 5.724299999999999944e-01 1.488170000000000037e+01 4.863240000000000229e+00 3.222529999999999895e+00 1.059919999999999973e+01 3.207590000000000163e+00 7.340709999999999624e+00 9.626239999999999242e+00 9.091000000000000192e-01 3.662129999999999885e+00 9.893259999999999721e+00 -1.197519999999999918e+00 6.845979999999999954e+00 9.833750000000000213e+00 9.713000000000000522e-01 9.092200000000000282e-01 1.378100000000000058e+01 -8.697500000000000231e-01 4.839279999999999582e+00 1.360399999999999920e+01 4.790219999999999700e+00 1.024920000000000053e+00 1.373969999999999914e+01 3.021100000000000119e+00 5.027630000000000265e+00 1.451449999999999996e+01 1.535879999999999912e+00 1.765930000000000000e+00 5.832199999999999607e-01 1.621439999999999992e+00 4.053560000000000052e+00 9.247199999999999864e-01 2.732759999999999856e+00 4.128280000000000172e+00 1.691209999999999880e+01 7.165610000000000035e+00 2.401199999999999779e+00 1.657209999999999894e+01
3.396990000000000176e+00 9.323599999999999666e-01 1.287570000000000014e+01 1.023819999999999952e+00 4.758339999999999570e+00 1.248419999999999952e+01 6.631680000000000241e+00 1.636139999999999928e+00 1.047269999999999968e+01 4.427550000000000097e+00 4.953859999999999708e+00 1.009539999999999971e+01 7.175830000000000375e+00 8.397400000000000420e-01 1.437119999999999997e+01 -2.924799999999999844e+00 5.229809999999999626e+00 1.549929999999999986e+01 1.265560000000000018e+00 6.019720000000000404e+00 1.866420000000000101e+01 2.037269999999999914e+00 1.878630000000000022e+00 1.676620000000000132e+01 1.143300000000000011e-01 2.087999999999999926e-02 9.249079999999999302e+00 5.217670000000000030e+00 2.944430000000000103e+00 8.720019999999999882e+00 4.244100000000000095e-01 6.719470000000000276e+00 1.092050000000000054e+01 2.483719999999999928e+00 3.095759999999999845e+00 1.120780000000000065e+01 -1.199189999999999978e+00 3.013009999999999966e+00 1.291610000000000014e+01 -2.997329999999999828e+00 6.841380000000000017e+00 1.305499999999999972e+01 3.454419999999999824e+00 2.738140000000000018e+00 1.466530000000000022e+01 1.363669999999999938e+00 5.932920000000000194e+00 1.474290000000000056e+01 -4.000000000000000083e-02 8.701600000000000446e-01 1.690660000000000096e+01 3.204060000000000130e+00 2.013199999999999878e+00 1.899010000000000176e+01 5.323369999999999713e+00 1.102780000000000094e+00 1.947719999999999985e+01 1.559099999999999930e+00 3.711990000000000123e+00 1.979700000000000060e+01
1.553960000000000008e+00 2.542339999999999822e+00 1.055330000000000013e+01 -5.812599999999999989e-01 6.861600000000000144e+00 1.114639999999999986e+01 5.980410000000000004e+00 2.514149999999999885e+00 1.030489999999999995e+01 3.582110000000000127e+00 6.038109999999999644e+00 1.112529999999999930e+01 3.782270000000000021e+00 7.001100000000000101e+00 1.538990000000000080e+01 6.258989999999999831e+00 3.338769999999999794e+00 1.514320000000000022e+01 3.042300000000000004e-01 4.256549999999999834e+00 5.058910000000000018e+00 1.541349999999999998e+00 3.578930000000000167e+00 1.415440000000000076e+01 -2.702300000000000257e-01 1.002099999999999991e+00 9.746890000000000498e+00 -2.576970000000000205e+00 5.003919999999999924e+00 9.673870000000000857e+00 4.022210000000000285e+00 8.847699999999999454e-01 8.956210000000000448e+00 2.276489999999999903e+00 4.763139999999999930e+00 9.449909999999999144e+00 7.071460000000000079e+00 2.154780000000000140e+00 1.314429999999999943e+01 -2.739110000000000156e+00 6.545700000000000074e+00 1.278829999999999956e+01 3.139159999999999950e+00 2.387360000000000149e+00 1.256240000000000023e+01 1.373539999999999983e+00 6.387439999999999785e+00 1.290199999999999925e+01 3.385110000000000063e+00 3.212619999999999809e+00 3.319100000000000161e+00 3.956949999999999967e+00 4.348659999999999748e+00 1.595679999999999943e+01 2.603860000000000063e+00 5.521650000000000169e+00 3.309429999999999872e+00 3.535599999999999854e-01 3.558780000000000054e+00 1.642000000000000171e+01
1.030070000000000041e+00 1.553190000000000071e+00 1.215320000000000000e+01 -1.064219999999999944e+00 5.149219999999999686e+00 1.172669999999999924e+01 5.191769999999999996e+00 1.439799999999999969e+00 1.171390000000000065e+01 3.071750000000000203e+00 5.305909999999999904e+00 1.137010000000000076e+01 -3.882750000000000146e+00 7.004450000000000287e+00 1.650039999999999907e+01 -1.735049999999999981e+00 3.725820000000000132e+00 1.536120000000000019e+01 4.631120000000000125e+00 1.560720000000000107e+00 1.735729999999999862e+01 1.851029999999999953e+00 4.476479999999999571e+00 1.528250000000000064e+01 7.585820000000000007e+00 6.231299999999999617e-01 1.031939999999999991e+01 5.166100000000000136e+00 4.124649999999999928e+00 1.051229999999999976e+01 2.854610000000000092e+00 5.106500000000000483e-01 1.056869999999999976e+01 9.581600000000000117e-01 3.829849999999999977e+00 1.061040000000000028e+01 9.066600000000000215e-01 1.832969999999999988e+00 1.474300000000000033e+01 -5.412200000000000344e-01 5.826039999999999885e+00 1.430129999999999946e+01 5.341739999999999711e+00 1.583669999999999911e+00 1.449239999999999995e+01 4.129760000000000097e+00 5.578949999999999854e+00 1.397920000000000051e+01 2.078250000000000153e+00 6.267400000000000304e+00 1.735419999999999874e+01 -2.124730000000000008e+00 5.415820000000000078e+00 1.772650000000000148e+01 2.213950000000000085e+00 1.457840000000000025e+00 1.788109999999999999e+01 -1.527309999999999945e+00 2.794709999999999805e+00 1.785869999999999891e+01