2.051740000000000119e+00 1.203470000000000040e+00 1.869480000000000031e+00 3.970139999999999780e+00 4.731650000000000134e+00 1.484660000000000091e+00 1.771800000000000042e-01 6.670049999999999812e+00 7.651500000000000412e+00 2.037830000000000030e+00 3.105220000000000091e+00 7.247830000000000439e+00 1.887800000000000034e-01 1.716390000000000082e+00 1.146148999999999951e+01 2.440199999999999925e+00 5.490199999999999747e+00 1.118499000000000088e+01 1.284769999999999968e+00 1.528299999999999992e+00 1.695119000000000042e+01 3.501720000000000166e+00 5.034589999999999677e+00 1.717509000000000086e+01 3.359410000000000007e+00 7.359630000000000116e+00 2.100348999999999933e+01 1.023249999999999993e+00 4.070470000000000255e+00 2.084769000000000005e+01 3.506769999999999943e+00 2.634679999999999911e+00 2.671398999999999901e+01 1.452609999999999957e+00 6.328260000000000218e+00 2.643739000000000061e+01 9.961000000000000409e-02 2.573859999999999815e+00 3.137900000000000134e+00 1.863140000000000018e+00 6.105330000000000368e+00 3.010749999999999815e+00 8.050000000000000211e-02 1.773679999999999923e+00 6.263119999999999798e+00 2.209519999999999929e+00 5.640310000000000379e+00 6.144319999999999560e+00 3.342290000000000205e+00 9.845699999999999452e-01 2.878329000000000093e+01 1.594510000000000094e+00 4.636000000000000121e+00 2.853509000000000029e+01 2.049859999999999793e+00 3.136699999999999822e+00 1.265309000000000061e+01 6.783799999999999830e-01 6.802489999999999704e+00 1.278378999999999976e+01 3.173939999999999984e+00 7.316819999999999879e+00 1.571748999999999974e+01 1.493419999999999970e+00 3.893539999999999779e+00 1.592188999999999943e+01 2.869250000000000078e+00 7.181800000000000406e-01 9.362849999999999895e+00 8.070300000000000251e-01 4.219479999999999897e+00 9.318630000000000635e+00 1.445570000000000022e+00 1.453540000000000054e+00 2.221919000000000111e+01 3.208079999999999821e+00 5.117519999999999847e+00 2.236828999999999823e+01 1.341520000000000046e+00 1.489810000000000079e+00 2.531679000000000102e+01 3.559639999999999915e+00 5.107689999999999841e+00 2.544418999999999897e+01 3.236530000000000129e+00 2.929269999999999818e+00 1.908098999999999990e+01 8.030800000000000161e-01 6.447989999999999888e+00 1.918109000000000108e+01
1.753759999999999986e+00 8.001599999999999824e-01 1.532829999999999915e+00 1.886400000000000021e-01 4.347109999999999808e+00 1.814079999999999915e+00 3.742459999999999898e+00 6.908240000000000158e+00 7.494049999999999656e+00 1.916220000000000034e+00 3.207339999999999858e+00 7.300169999999999604e+00 3.358150000000000190e+00 2.624340000000000117e+00 1.132668999999999926e+01 1.527500000000000080e+00 6.280199999999999783e+00 1.115588999999999942e+01 1.750350000000000072e+00 1.735999999999999988e+00 1.693729000000000084e+01 -2.864200000000000079e-01 5.213460000000000427e+00 1.692189000000000121e+01 -2.756299999999999861e-01 7.256700000000000372e+00 2.079369000000000156e+01 1.993479999999999919e+00 3.714980000000000171e+00 2.083949000000000140e+01 -4.226500000000000257e-01 2.456310000000000215e+00 2.626098999999999961e+01 1.543179999999999996e+00 6.152569999999999872e+00 2.645859000000000094e+01 3.697859999999999925e+00 1.803209999999999980e+00 2.913580000000000059e+00 2.029250000000000220e+00 5.515069999999999695e+00 3.192029999999999923e+00 3.903840000000000199e+00 2.050530000000000186e+00 6.109079999999999622e+00 1.737950000000000106e+00 5.611589999999999634e+00 6.198380000000000223e+00 -2.417600000000000027e-01 7.093289999999999651e+00 2.835388999999999982e+01 1.695540000000000047e+00 3.310210000000000097e+00 2.826989000000000019e+01 1.207389999999999963e+00 3.889429999999999943e+00 1.236979000000000006e+01 3.840819999999999901e+00 2.932400000000000007e-01 1.265038999999999980e+01 -1.150100000000000011e-01 3.328999999999999737e-01 1.573748999999999931e+01 1.821909999999999918e+00 4.013639999999999652e+00 1.557459000000000060e+01 1.699549999999999894e+00 1.468369999999999953e+00 9.373739999999999739e+00 3.490009999999999835e+00 5.261709999999999887e+00 9.379250000000000753e+00 1.777479999999999949e+00 1.344119999999999981e+00 2.216129000000000104e+01 5.727999999999999758e-02 4.998319999999999652e+00 2.211569000000000074e+01 1.707379999999999898e+00 1.192870000000000097e+00 2.500619000000000014e+01 3.526130000000000209e+00 4.795139999999999958e+00 2.512098999999999904e+01 -3.352800000000000225e-01 2.146389999999999798e+00 1.904658999999999835e+01 1.887909999999999977e+00 5.707749999999999879e+00 1.901428999999999903e+01
1.948390000000000066e+00 1.038790000000000102e+00 1.862630000000000008e+00 5.074000000000000038e-02 4.556309999999999860e+00 1.746720000000000050e+00 3.191419999999999924e+00 3.724700000000000233e-01 7.582119999999999749e+00 1.532939999999999969e+00 4.270780000000000243e+00 7.170029999999999681e+00 3.682319999999999816e+00 2.504449999999999843e+00 1.159309999999999974e+01 1.420840000000000103e+00 6.380340000000000344e+00 1.115959999999999930e+01 2.150949999999999918e+00 1.310179999999999900e+00 1.740050000000000097e+01 -1.076000000000000047e-02 4.912340000000000373e+00 1.737199999999999989e+01 -2.252599999999999880e-01 7.007489999999999775e+00 2.082400000000000162e+01 2.320759999999999934e+00 3.415519999999999889e+00 2.096409999999999840e+01 -3.745200000000000196e-01 2.207269999999999843e+00 2.687819999999999965e+01 1.532710000000000017e+00 5.776550000000000296e+00 2.695179999999999865e+01 3.869679999999999787e+00 2.038339999999999819e+00 3.102320000000000189e+00 2.016350000000000087e+00 5.663979999999999571e+00 2.959420000000000162e+00 3.627619999999999845e+00 2.729070000000000107e+00 6.183469999999999800e+00 9.275299999999999656e-01 6.519280000000000186e+00 6.030369999999999564e+00 -6.450000000000000004e-03 7.290149999999999686e+00 2.863830000000000098e+01 1.793479999999999963e+00 3.481970000000000010e+00 2.888257000000000119e+01 1.603650000000000020e+00 3.952240000000000197e+00 1.270770000000000088e+01 3.501900000000000013e+00 7.216730000000000089e+00 1.278129999999999988e+01 6.661999999999999866e-02 7.447680000000000078e+00 1.594030000000000058e+01 2.074840000000000018e+00 3.627149999999999874e+00 1.583900000000000041e+01 1.379930000000000101e+00 1.433159999999999989e+00 9.573180000000000689e+00 2.877299999999999969e+00 5.327679999999999971e+00 9.260249999999999204e+00 2.068360000000000198e+00 9.676099999999999701e-01 2.223359999999999914e+01 8.114000000000000379e-02 4.582880000000000287e+00 2.212819999999999965e+01 1.806259999999999977e+00 1.327849999999999975e+00 2.522579999999999956e+01 -3.791499999999999870e-01 4.776919999999999611e+00 2.555620000000000047e+01 -5.489000000000000129e-02 2.094930000000000181e+00 1.900959999999999894e+01 2.054600000000000204e+00 6.031710000000000349e+00 1.907799999999999940e+01
2.329889999999999795e+00 1.194420000000000037e+00 1.686260000000000092e+00 3.907059999999999977e+00 4.705470000000000041e+00 1.608600000000000030e+00 2.798700000000000077e-01 6.678729999999999833e+00 7.335880000000000400e+00 2.108210000000000139e+00 3.222659999999999858e+00 7.336680000000000312e+00 -6.962999999999999745e-02 2.026400000000000201e+00 1.101214000000000048e+01 2.371659999999999879e+00 5.722909999999999719e+00 1.131603999999999921e+01 1.482799999999999896e+00 1.566869999999999985e+00 1.686824000000000012e+01 3.737410000000000121e+00 5.193859999999999921e+00 1.686064000000000007e+01 3.254779999999999784e+00 7.260779999999999568e+00 2.115624000000000038e+01 1.254399999999999959e+00 3.511480000000000157e+00 2.088444000000000145e+01 3.333359999999999879e+00 2.988420000000000076e+00 2.649894000000000105e+01 1.537260000000000071e+00 6.526760000000000339e+00 2.669834000000000174e+01 1.252399999999999902e-01 2.235139999999999905e+00 3.071120000000000072e+00 2.025059999999999860e+00 5.858439999999999870e+00 2.932830000000000048e+00 3.921899999999999831e-01 1.864770000000000039e+00 6.108349999999999724e+00 2.371469999999999967e+00 5.492919999999999803e+00 5.884229999999999627e+00 3.440679999999999961e+00 5.851600000000000135e-01 2.841713999999999984e+01 1.683049999999999935e+00 4.377030000000000420e+00 2.838663999999999987e+01 1.998990000000000045e+00 3.383030000000000204e+00 1.236463999999999963e+01 1.826200000000000045e-01 7.068039999999999878e+00 1.268504000000000076e+01 3.487099999999999866e+00 4.098700000000000121e-01 1.554243999999999915e+01 1.702460000000000084e+00 4.026290000000000369e+00 1.541253999999999991e+01 2.198220000000000063e+00 4.810900000000000176e-01 9.389499999999999957e+00 2.858000000000000124e-02 4.334880000000000067e+00 9.180730000000000501e+00 1.244119999999999893e+00 1.118260000000000032e+00 2.241453999999999880e+01 2.979779999999999873e+00 4.766569999999999752e+00 2.239534000000000091e+01 1.358239999999999892e+00 1.871110000000000051e+00 2.535544000000000153e+01 3.573729999999999851e+00 5.346169999999999867e+00 2.527324000000000126e+01 3.104800000000000004e+00 2.230719999999999814e+00 1.907263999999999982e+01 8.023099999999999676e-01 5.811849999999999739e+00 1.921824000000000154e+01
2.685799999999999854e-01 3.246599999999999930e+00 1.421519999999999895e+00 2.414000000000000146e+00 6.909299999999999997e+00 1.557169999999999943e+00 4.534799999999999942e-01 4.965760000000000396e+00 8.136120000000000019e+00 2.958089999999999886e+00 1.205619999999999914e+00 8.034610000000000696e+00 5.392500000000000071e-01 1.057139999999999969e+00 1.213045999999999935e+01 2.293719999999999981e+00 4.775970000000000049e+00 1.205686000000000035e+01 2.521609999999999907e+00 6.884830000000000005e+00 1.815546000000000149e+01 3.361199999999999743e-01 3.075009999999999799e+00 1.812486000000000175e+01 5.815799999999999859e-01 1.621499999999999886e-01 2.222246000000000166e+01 2.480560000000000098e+00 3.749379999999999935e+00 2.234865999999999886e+01 4.073129999999999917e+00 5.171429999999999971e+00 2.813085999999999842e+01 2.164829999999999810e+00 1.472380000000000022e+00 2.812145999999999901e+01 2.521310000000000162e+00 1.927380000000000093e+00 2.570520000000000138e+00 3.594600000000000017e-01 5.728180000000000049e+00 2.640699999999999825e+00 7.584600000000000231e-01 7.359790000000000276e+00 7.198170000000000179e+00 2.633220000000000116e+00 3.591390000000000082e+00 6.966689999999999827e+00 2.359609999999999985e+00 1.780189999999999939e+00 3.066435999999999851e+01 4.255880000000000329e+00 5.564659999999999940e+00 3.065136000000000038e+01 1.229800000000000060e-01 3.498829999999999885e+00 1.326576000000000022e+01 4.976800000000000113e-01 6.223880000000000301e+00 1.331025999999999954e+01 4.515000000000000124e-01 5.579729999999999634e+00 1.703676000000000101e+01 2.515099999999999891e+00 1.841050000000000075e+00 1.706625999999999976e+01 2.641570000000000196e+00 3.993300000000000183e-01 1.067364000000000068e+01 2.377940000000000165e+00 4.048269999999999591e+00 9.562279999999999447e+00 2.530009999999999870e+00 1.496639999999999970e+00 2.361965999999999966e+01 3.842099999999999960e-01 5.173020000000000174e+00 2.345786000000000016e+01 2.026510000000000034e+00 3.896419999999999995e+00 2.708035999999999888e+01 4.215729999999999755e+00 2.890800000000000036e-01 2.697175999999999974e+01 4.428799999999999959e-01 2.686399999999999899e+00 2.066626000000000118e+01 2.594619999999999926e+00 6.407119999999999926e+00 2.071615999999999858e+01
2.098339999999999872e+00 1.358020000000000005e+00 1.703359999999999985e+00 3.920519999999999783e+00 4.992539999999999978e+00 1.483239999999999892e+00 5.772999999999999660e-02 6.830879999999999619e+00 7.720850000000000435e+00 2.075019999999999865e+00 3.308910000000000018e+00 7.177030000000000243e+00 -2.832000000000000142e-02 1.872619999999999951e+00 1.104880999999999958e+01 2.138090000000000046e+00 5.413649999999999629e+00 1.163560999999999979e+01 1.522860000000000102e+00 1.442220000000000057e+00 1.694891000000000147e+01 -1.765599999999999947e-01 5.064390000000000391e+00 1.689930999999999983e+01 3.472249999999999837e+00 7.306400000000000006e+00 2.088851000000000013e+01 1.151690000000000103e+00 3.677500000000000213e+00 2.077111000000000018e+01 -4.896199999999999997e-01 3.077820000000000000e+00 2.633911000000000158e+01 1.409780000000000033e+00 6.714450000000000252e+00 2.667921000000000120e+01 2.491299999999999903e-01 2.579410000000000203e+00 2.991220000000000212e+00 1.893369999999999997e+00 5.880410000000000359e+00 3.097069999999999990e+00 2.636800000000000255e-01 1.770000000000000018e+00 6.067840000000000344e+00 1.982290000000000108e+00 5.613920000000000243e+00 6.028780000000000250e+00 3.207069999999999865e+00 6.025700000000000500e-01 2.845401000000000025e+01 1.351490000000000080e+00 3.953619999999999912e+00 2.837390999999999863e+01 1.978699999999999903e+00 2.956529999999999880e+00 1.255161000000000016e+01 7.696999999999999675e-02 6.698459999999999859e+00 1.271521000000000079e+01 3.451029999999999820e+00 2.659599999999999742e-01 1.569341000000000008e+01 1.960420000000000051e+00 3.844430000000000014e+00 1.570021000000000022e+01 2.185350000000000126e+00 7.220080000000000275e+00 9.639189999999999259e+00 -1.785400000000000043e-01 3.959029999999999827e+00 9.071949999999999292e+00 1.513330000000000064e+00 1.297220000000000040e+00 2.216210999999999842e+01 3.254109999999999836e+00 5.016969999999999708e+00 2.196040999999999954e+01 1.458499999999999908e+00 1.862719999999999931e+00 2.497770999999999830e+01 -3.674000000000000044e-01 5.703149999999999942e+00 2.526041000000000025e+01 3.443259999999999987e+00 2.346839999999999815e+00 1.880510999999999910e+01 1.072389999999999954e+00 6.031970000000000276e+00 1.896370999999999896e+01
1.917040000000000077e+00 1.012000000000000011e+00 1.821860000000000035e+00 -5.675999999999999795e-02 4.760030000000000427e+00 1.682239999999999958e+00 2.500000000000000000e-01 6.801009999999999778e+00 7.248870000000000147e+00 2.387950000000000017e+00 3.023810000000000109e+00 7.492200000000000415e+00 3.483600000000000030e-01 1.683820000000000094e+00 1.117721000000000053e+01 2.260829999999999895e+00 5.364980000000000082e+00 1.102820999999999962e+01 1.452499999999999902e+00 1.511190000000000033e+00 1.699461000000000155e+01 3.312899999999999956e+00 5.223659999999999748e+00 1.699351000000000056e+01 2.995919999999999916e+00 7.431219999999999715e+00 2.070241000000000042e+01 1.124209999999999932e+00 3.791850000000000165e+00 2.076621000000000095e+01 3.470019999999999882e+00 2.851719999999999811e+00 2.647651000000000110e+01 1.210609999999999964e+00 6.199220000000000397e+00 2.651601000000000141e+01 3.969580000000000108e+00 2.393440000000000012e+00 3.078089999999999993e+00 2.202809999999999935e+00 5.987930000000000419e+00 3.087419999999999831e+00 4.962199999999999944e-01 1.938930000000000042e+00 6.021770000000000067e+00 2.316860000000000142e+00 5.459270000000000067e+00 6.042639999999999567e+00 -2.991099999999999870e-01 5.129599999999999715e-01 2.830840999999999852e+01 1.364780000000000104e+00 4.351569999999999716e+00 2.847471000000000174e+01 2.368539999999999868e+00 3.040690000000000115e+00 1.237981000000000087e+01 4.097000000000000086e-01 6.649569999999999759e+00 1.257920999999999978e+01 3.399680000000000035e+00 3.834799999999999875e-01 1.543421000000000021e+01 1.281199999999999894e+00 3.913139999999999841e+00 1.597281000000000084e+01 2.206199999999999939e+00 8.569200000000000150e-01 9.232039999999999580e+00 1.395000000000000129e-01 4.389240000000000030e+00 9.086880000000000734e+00 1.047760000000000025e+00 1.584410000000000096e+00 2.223630999999999958e+01 3.385149999999999881e+00 5.272190000000000154e+00 2.179791000000000167e+01 1.434369999999999923e+00 1.392879999999999896e+00 2.536880999999999986e+01 3.345699999999999896e+00 5.058150000000000368e+00 2.519510999999999967e+01 3.133690000000000087e+00 2.561809999999999921e+00 1.892921000000000120e+01 1.410209999999999964e+00 6.471099999999999852e+00 1.877111000000000018e+01
2.148719999999999963e+00 5.761899999999999800e-01 1.580780000000000074e+00 3.955029999999999824e+00 4.531480000000000175e+00 1.575530000000000097e+00 3.859980000000000189e+00 2.960300000000000153e-01 7.322899999999999743e+00 1.446260000000000101e+00 3.820689999999999920e+00 7.496629999999999683e+00 3.638580000000000148e+00 2.236889999999999823e+00 1.136730999999999980e+01 1.537230000000000096e+00 6.006240000000000023e+00 1.112510999999999939e+01 2.106419999999999959e+00 1.542079999999999895e+00 1.689530999999999850e+01 -2.830199999999999938e-01 5.223499999999999588e+00 1.707760999999999996e+01 -2.562699999999999978e-01 6.953470000000000262e+00 2.089630999999999972e+01 1.731039999999999912e+00 3.462450000000000028e+00 2.092151000000000138e+01 3.489910000000000068e+00 2.348669999999999813e+00 2.660370999999999952e+01 1.856600000000000028e+00 5.652050000000000018e+00 2.669931000000000054e+01 3.952510000000000190e+00 2.067919999999999980e+00 3.025030000000000108e+00 2.026949999999999807e+00 5.486489999999999867e+00 2.900749999999999940e+00 3.422870000000000079e+00 2.620210000000000150e+00 6.001210000000000377e+00 1.648419999999999996e+00 6.290879999999999583e+00 6.090489999999999959e+00 -5.200700000000000323e-01 7.177380000000000315e+00 2.844181000000000026e+01 1.652819999999999956e+00 3.473139999999999894e+00 2.838710999999999984e+01 1.571849999999999969e+00 3.528810000000000002e+00 1.253311000000000064e+01 -1.505400000000000071e-01 7.168809999999999683e+00 1.258441000000000010e+01 -2.000000000000000164e-05 3.687099999999999822e-01 1.569011000000000067e+01 1.960530000000000106e+00 4.107070000000000221e+00 1.571691000000000038e+01 1.032489999999999908e+00 1.754199999999999982e+00 9.300019999999999953e+00 3.508270000000000000e+00 5.339229999999999698e+00 9.392319999999999780e+00 2.031989999999999963e+00 1.108929999999999971e+00 2.195091000000000037e+01 -4.170099999999999918e-01 4.878149999999999764e+00 2.249570999999999898e+01 1.746289999999999898e+00 9.246999999999999664e-01 2.523101000000000127e+01 -1.317200000000000037e-01 4.674780000000000157e+00 2.525231000000000137e+01 9.803000000000000602e-02 2.576769999999999783e+00 1.864040999999999926e+01 1.527069999999999927e+00 5.997539999999999871e+00 1.893121000000000009e+01
2.073560000000000070e+00 1.236369999999999969e+00 1.658619999999999983e+00 3.912319999999999798e+00 4.718799999999999883e+00 1.665049999999999919e+00 1.891799999999999871e-01 7.085250000000000270e+00 7.230269999999999975e+00 2.156719999999999970e+00 3.358929999999999971e+00 7.388169999999999682e+00 3.618749999999999911e+00 2.251119999999999788e+00 1.125455999999999968e+01 1.933319999999999927e+00 5.532239999999999824e+00 1.115095999999999954e+01 1.615879999999999983e+00 1.074780000000000069e+00 1.682046000000000063e+01 3.586289999999999978e+00 4.525450000000000195e+00 1.702965999999999980e+01 3.563940000000000108e+00 7.170110000000000205e+00 2.080196000000000112e+01 1.410120000000000040e+00 3.585560000000000080e+00 2.049965999999999866e+01 3.280539999999999790e+00 2.869779999999999998e+00 2.664776000000000167e+01 1.326470000000000038e+00 6.699679999999999858e+00 2.632216000000000022e+01 -1.073999999999999955e-02 2.295879999999999921e+00 2.946200000000000152e+00 1.967559999999999976e+00 5.919579999999999842e+00 3.066359999999999975e+00 1.693900000000000128e-01 2.419939999999999980e+00 5.926969999999999850e+00 2.262329999999999952e+00 5.843280000000000030e+00 6.047220000000000262e+00 2.461500000000000077e-01 3.726999999999999758e-02 5.299999999999999807e-04 2.305390000000000050e+00 3.345940000000000136e+00 5.652999999999999692e-02 1.782280000000000086e+00 3.459389999999999965e+00 1.279255999999999993e+01 -1.466999999999999971e-01 6.817109999999999559e+00 1.216816000000000031e+01 -2.460600000000000009e-01 7.071909999999999918e+00 1.541736000000000040e+01 1.623420000000000085e+00 3.561339999999999950e+00 1.550786000000000087e+01 1.942390000000000061e+00 9.049300000000000122e-01 9.068740000000000023e+00 3.724899999999999878e+00 4.211520000000000152e+00 9.390159999999999840e+00 1.663049999999999917e+00 1.158330000000000082e+00 2.213785999999999987e+01 3.463960000000000150e+00 4.728799999999999670e+00 2.151755999999999958e+01 1.346819999999999906e+00 1.780559999999999921e+00 2.508846000000000132e+01 3.385240000000000027e+00 5.263989999999999725e+00 2.517066000000000159e+01 3.560299999999999798e+00 2.243069999999999897e+00 1.864905999999999864e+01 1.491030000000000078e+00 6.244189999999999685e+00 1.883556000000000097e+01
2.139889999999999848e+00 6.460599999999999676e-01 1.778140000000000054e+00 3.970340000000000202e+00 4.387039999999999829e+00 1.562400000000000011e+00 -1.348600000000000076e-01 7.046030000000000015e+00 7.461640000000000050e+00 2.137039999999999829e+00 3.257460000000000022e+00 7.394580000000000375e+00 -1.295399999999999885e-01 2.361330000000000151e+00 1.099741000000000035e+01 1.599509999999999987e+00 5.824840000000000018e+00 1.140460999999999991e+01 1.589329999999999909e+00 1.490119999999999889e+00 1.712481000000000009e+01 3.625680000000000014e+00 4.828149999999999942e+00 1.664851000000000170e+01 3.580029999999999824e+00 4.408099999999999796e-01 2.080500999999999934e+01 1.561399999999999899e+00 3.694939999999999891e+00 2.089411000000000129e+01 3.571919999999999984e+00 2.690290000000000070e+00 2.656011000000000166e+01 1.662360000000000060e+00 6.259260000000000268e+00 2.651070999999999955e+01 2.413299999999999890e-01 2.023109999999999964e+00 3.039969999999999839e+00 2.013149999999999995e+00 5.436700000000000088e+00 3.088229999999999809e+00 -1.803000000000000089e-02 2.285759999999999792e+00 6.046100000000000030e+00 1.919219999999999926e+00 5.918029999999999902e+00 6.325980000000000381e+00 3.335389999999999855e+00 7.146519999999999762e+00 2.850721000000000060e+01 1.628659999999999997e+00 3.640150000000000219e+00 2.849981000000000009e+01 1.939089999999999980e+00 3.561020000000000074e+00 1.260491000000000028e+01 3.582419999999999938e+00 7.057489999999999597e+00 1.245101000000000013e+01 3.264889999999999848e+00 7.372049999999999770e+00 1.558170999999999928e+01 1.528639999999999999e+00 3.471070000000000100e+00 1.538851000000000013e+01 2.204569999999999919e+00 1.004559999999999897e+00 9.477399999999999380e+00 4.192100000000000271e-01 4.394660000000000011e+00 9.217879999999999185e+00 1.322850000000000081e+00 1.325220000000000065e+00 2.227290999999999954e+01 3.359910000000000174e+00 5.116209999999999702e+00 2.221940999999999988e+01 1.650609999999999911e+00 1.636519999999999975e+00 2.513851000000000013e+01 -4.533300000000000107e-01 5.089319999999999844e+00 2.528301000000000087e+01 3.555270000000000152e+00 3.119880000000000209e+00 1.884561000000000064e+01 1.658900000000000041e+00 6.655859999999999665e+00 1.902120999999999995e+01
2.105309999999999793e+00 1.436220000000000052e+00 1.731989999999999919e+00 3.970320000000000071e+00 4.816449999999999676e+00 1.534000000000000030e+00 6.479999999999999649e-02 6.631099999999999994e+00 7.524460000000000370e+00 2.161280000000000090e+00 3.196699999999999875e+00 6.943299999999999805e+00 3.869349999999999845e+00 2.141379999999999839e+00 1.107004000000000055e+01 2.171530000000000182e+00 5.617810000000000414e+00 1.149183999999999983e+01 1.905890000000000084e+00 1.312769999999999992e+00 1.728894000000000020e+01 -3.408900000000000263e-01 5.031439999999999912e+00 1.676124000000000080e+01 3.335280000000000022e+00 7.375549999999999606e+00 2.063573999999999842e+01 1.367529999999999912e+00 3.776339999999999808e+00 2.098583999999999961e+01 -4.676500000000000101e-01 3.227640000000000065e+00 2.646994000000000113e+01 1.405189999999999939e+00 6.793079999999999785e+00 2.675253999999999976e+01 -2.942000000000000171e-02 2.487839999999999829e+00 2.894760000000000222e+00 1.858389999999999986e+00 6.065750000000000419e+00 2.815650000000000208e+00 1.358000000000000006e-02 1.799670000000000103e+00 5.869690000000000296e+00 1.955089999999999995e+00 5.679229999999999556e+00 6.019639999999999880e+00 3.167149999999999910e+00 7.575910000000000366e+00 2.864504000000000161e+01 1.411030000000000006e+00 4.029880000000000351e+00 2.840584000000000131e+01 1.871199999999999974e+00 3.146799999999999820e+00 1.245484000000000080e+01 5.759999999999999842e-02 6.681239999999999846e+00 1.293044000000000082e+01 -3.050499999999999878e-01 7.324930000000000163e+00 1.554554000000000080e+01 1.688749999999999973e+00 3.697989999999999888e+00 1.564673999999999943e+01 2.250539999999999985e+00 4.959600000000000120e-01 9.506510000000000460e+00 3.615320000000000089e+00 4.028679999999999595e+00 9.061349999999999127e+00 1.288669999999999982e+00 1.330009999999999915e+00 2.225694000000000017e+01 3.297540000000000138e+00 4.779370000000000118e+00 2.240693999999999875e+01 1.677470000000000017e+00 1.867899999999999894e+00 2.534494000000000113e+01 3.512929999999999886e+00 5.502749999999999808e+00 2.538324000000000069e+01 -2.716799999999999771e-01 2.285860000000000003e+00 1.905054000000000158e+01 1.298389999999999933e+00 5.693769999999999776e+00 1.896803999999999846e+01
1.975270000000000081e+00 7.904099999999999460e-01 1.717179999999999929e+00 2.819699999999999984e-01 4.385930000000000106e+00 1.649729999999999919e+00 -9.614999999999999936e-02 7.173820000000000086e+00 7.342369999999999841e+00 1.664789999999999992e+00 3.683570000000000011e+00 7.356110000000000149e+00 3.776609999999999800e+00 2.850119999999999987e+00 1.110540999999999912e+01 1.475340000000000096e+00 6.181180000000000341e+00 1.101160999999999923e+01 1.756510000000000016e+00 1.520759999999999890e+00 1.713971000000000089e+01 -2.016400000000000137e-01 4.812409999999999854e+00 1.673520999999999859e+01 -3.078899999999999970e-01 7.381439999999999557e+00 2.036770999999999887e+01 1.445049999999999946e+00 3.647349999999999870e+00 2.097971000000000075e+01 -3.739199999999999746e-01 2.252699999999999925e+00 2.661561000000000021e+01 1.608070000000000110e+00 5.758490000000000109e+00 2.647740999999999900e+01 3.844669999999999810e+00 2.219100000000000072e+00 3.088989999999999903e+00 2.366330000000000044e+00 5.482380000000000031e+00 3.200380000000000003e+00 3.497329999999999828e+00 2.403500000000000192e+00 6.196559999999999846e+00 2.081189999999999873e+00 6.011339999999999684e+00 5.951760000000000161e+00 -5.642500000000000293e-01 6.946810000000000151e+00 2.830080999999999847e+01 1.361680000000000001e+00 3.411560000000000148e+00 2.832121000000000066e+01 1.858510000000000106e+00 3.711390000000000189e+00 1.241571000000000069e+01 3.574829999999999952e+00 4.150800000000000045e-01 1.227861000000000047e+01 -8.894000000000000516e-02 7.134920000000000151e+00 1.557371000000000016e+01 1.838589999999999947e+00 3.475039999999999907e+00 1.539371000000000045e+01 1.520520000000000094e+00 1.189470000000000027e+00 9.172489999999999810e+00 3.818090000000000206e+00 5.056210000000000093e+00 9.213699999999999335e+00 1.789029999999999898e+00 1.196409999999999973e+00 2.179890999999999934e+01 3.428350000000000009e+00 4.977369999999999628e+00 2.221650999999999954e+01 1.720590000000000064e+00 1.295989999999999975e+00 2.529770999999999859e+01 -4.274999999999999911e-01 4.932150000000000034e+00 2.509261000000000053e+01 -3.149000000000000132e-01 2.239149999999999974e+00 1.873851000000000155e+01 1.422239999999999949e+00 5.738559999999999661e+00 1.892370999999999981e+01
2.176730000000000054e+00 1.293230000000000102e+00 1.843210000000000015e+00 3.908129999999999882e+00 4.896370000000000111e+00 1.545069999999999943e+00 -6.440000000000000412e-03 6.737619999999999720e+00 7.596840000000000259e+00 2.062240000000000073e+00 3.425780000000000047e+00 7.466239999999999988e+00 1.210100000000000064e-01 1.742510000000000003e+00 1.099264999999999937e+01 2.148460000000000036e+00 5.208280000000000243e+00 1.148895000000000088e+01 1.190809999999999924e+00 1.357299999999999951e+00 1.688335000000000008e+01 -1.377099999999999991e-01 4.987429999999999808e+00 1.694535000000000124e+01 3.594100000000000072e+00 7.280400000000000205e+00 2.061635000000000062e+01 1.130609999999999893e+00 3.719990000000000130e+00 2.031145000000000067e+01 3.512350000000000083e+00 3.072099999999999831e+00 2.616465000000000174e+01 1.592710000000000070e+00 6.602769999999999584e+00 2.633614999999999995e+01 2.521999999999999936e-02 2.565230000000000121e+00 2.850630000000000219e+00 1.957629999999999981e+00 6.052859999999999907e+00 3.043219999999999814e+00 3.083500000000000130e-01 1.758380000000000054e+00 6.170440000000000147e+00 2.047779999999999934e+00 5.672150000000000247e+00 6.162259999999999849e+00 3.453129999999999811e+00 5.370700000000000474e-01 2.822585000000000122e+01 1.327599999999999891e+00 4.107879999999999754e+00 2.820254999999999868e+01 2.047550000000000203e+00 2.836349999999999927e+00 1.241874999999999929e+01 3.310000000000000008e-03 6.778839999999999755e+00 1.259704999999999941e+01 3.416999999999999815e+00 2.929100000000000037e-01 1.561035000000000039e+01 1.872689999999999966e+00 4.176759999999999806e+00 1.544865000000000066e+01 2.075649999999999995e+00 7.096639999999999837e+00 9.486750000000000682e+00 1.040800000000000058e-01 3.665099999999999802e+00 9.394330000000000069e+00 1.583800000000000097e+00 1.439559999999999951e+00 2.213725000000000165e+01 3.026800000000000157e+00 4.828809999999999825e+00 2.184444999999999837e+01 1.396800000000000042e+00 1.969649999999999901e+00 2.479104999999999848e+01 3.420669999999999877e+00 5.442140000000000200e+00 2.496284999999999954e+01 3.235930000000000195e+00 2.335679999999999978e+00 1.875525000000000020e+01 1.119690000000000074e+00 6.283789999999999765e+00 1.891365000000000052e+01