-1.058606536599999970e+02
-1.056687347099999954e+02
-1.052607844300000011e+02
-1.055206200800000005e+02
-1.029806702300000012e+02
-1.057222928099999990e+02
-1.058905078899999950e+02
-1.049906046100000054e+02
-1.049175304399999931e+02
-1.051914385399999929e+02
-1.053184316100000046e+02
-1.047982701800000029e+02
-1.049559816900000015e+02
-1.060443427200000031e+02
-1.055920032800000001e+02
-1.054438970599999976e+02
-1.051658181100000036e+02
-9.883990737999999965e+01
-9.945712982999999952e+01
-1.048488757899999939e+02
-1.057446744399999972e+02
-1.039839519500000051e+02
-1.046252286200000015e+02
-1.054153294299999999e+02
-1.055094891399999995e+02
-9.860526024000000689e+01
-1.057624696900000032e+02
-1.050803691200000003e+02
-1.050400565500000027e+02
-1.055571173700000003e+02
-1.049692439399999984e+02
-9.888293735000000595e+01
-1.052171427300000062e+02
-1.046499219199999970e+02
-1.047199506299999996e+02
-9.877510628999999653e+01
-1.044406174500000049e+02
-1.051621235100000007e+02
-1.050764664200000027e+02
-1.053552994100000006e+02
-1.053312693400000057e+02
-9.850353115999999432e+01
-1.049486865599999987e+02
-1.054013583199999999e+02
-1.057158669399999980e+02
-1.053700480199999987e+02
-1.050217611599999969e+02
-1.052693425500000046e+02
-1.053111079600000011e+02
-1.046481916200000057e+02
