4.227494976000000015e+00 0.000000000000000000e+00 0.000000000000000000e+00 -5.411263000000000357e-03 7.411543112999999572e+00 0.000000000000000000e+00 1.114485880000000012e-01 1.033936740000000049e-01 3.071569116299999891e+01
4.200317984999999865e+00 0.000000000000000000e+00 0.000000000000000000e+00 5.767962100000000036e-02 7.507226025999999663e+00 0.000000000000000000e+00 -3.785512209999999933e-01 1.653412979999999977e-01 2.983516941399999922e+01
4.287402002000000323e+00 0.000000000000000000e+00 0.000000000000000000e+00 -9.237417700000000176e-02 7.107262152999999749e+00 0.000000000000000000e+00 6.862155659999999990e-01 -6.350295009999999962e-01 3.040475895799999861e+01
4.196177485999999845e+00 0.000000000000000000e+00 0.000000000000000000e+00 5.762276300000000046e-02 7.499825713999999977e+00 0.000000000000000000e+00 -3.781780610000000098e-01 1.651783119999999938e-01 2.980575914199999943e+01
4.238144235000000037e+00 0.000000000000000000e+00 0.000000000000000000e+00 -9.131289500000000503e-02 7.025607139999999973e+00 0.000000000000000000e+00 6.783316660000000553e-01 -6.277336749999999910e-01 3.005544005899999860e+01
4.441567174000000229e+00 0.000000000000000000e+00 0.000000000000000000e+00 -9.569574100000000083e-02 7.362823047000000010e+00 0.000000000000000000e+00 7.108903079999999708e-01 -6.578637090000000187e-01 3.149804456000000030e+01
4.291871949999999991e+00 0.000000000000000000e+00 0.000000000000000000e+00 -9.247048500000000504e-02 7.114672023999999873e+00 0.000000000000000000e+00 6.869309989999999866e-01 -6.356915680000000402e-01 3.043645827099999934e+01
4.254375418999999603e+00 0.000000000000000000e+00 0.000000000000000000e+00 -5.445669999999999678e-03 7.458669262999999994e+00 0.000000000000000000e+00 1.121572309999999961e-01 1.040511009999999931e-01 3.091099627699999886e+01
4.212900337999999856e+00 0.000000000000000000e+00 0.000000000000000000e+00 5.785240500000000258e-02 7.529714459000000026e+00 0.000000000000000000e+00 -3.796851989999999732e-01 1.658365900000000059e-01 2.992454280100000119e+01
4.210993467999999851e+00 0.000000000000000000e+00 0.000000000000000000e+00 5.782621899999999815e-02 7.526306309999999833e+00 0.000000000000000000e+00 -3.795133430000000030e-01 1.657615279999999913e-01 2.991099815999999834e+01
4.464604835000000271e+00 0.000000000000000000e+00 0.000000000000000000e+00 -9.619209900000000313e-02 7.401012771999999629e+00 0.000000000000000000e+00 7.145775770000000193e-01 -6.612759379999999521e-01 3.166141961800000004e+01
4.195532456999999660e+00 0.000000000000000000e+00 0.000000000000000000e+00 5.761390499999999998e-02 7.498672853999999610e+00 0.000000000000000000e+00 -3.781199279999999940e-01 1.651529210000000081e-01 2.980117745500000126e+01
4.543882217000000168e+00 0.000000000000000000e+00 0.000000000000000000e+00 -9.174200000000000356e-05 7.870181793999999620e+00 0.000000000000000000e+00 -1.532120000000000096e-04 1.883300000000000078e-04 3.206256632400000228e+01
4.131993195999999813e+00 0.000000000000000000e+00 0.000000000000000000e+00 5.674137099999999878e-02 7.385109167000000419e+00 0.000000000000000000e+00 -3.723934890000000220e-01 1.626517620000000053e-01 2.934985338199999916e+01
4.442722289999999852e+00 0.000000000000000000e+00 0.000000000000000000e+00 -9.572062900000000152e-02 7.364737894000000118e+00 0.000000000000000000e+00 7.110751889999999964e-01 -6.580348000000000308e-01 3.150623624400000011e+01
4.206768171000000223e+00 0.000000000000000000e+00 0.000000000000000000e+00 1.513163509999999878e-01 7.045275303000000378e+00 0.000000000000000000e+00 7.926654600000000439e-01 1.075385160000000007e-01 3.010613825000000077e+01
4.267052704000000141e+00 0.000000000000000000e+00 0.000000000000000000e+00 1.534847699999999926e-01 7.146236684999999866e+00 0.000000000000000000e+00 8.040246469999999812e-01 1.090795829999999939e-01 3.053757026599999946e+01
4.378860948999999891e+00 0.000000000000000000e+00 0.000000000000000000e+00 -9.434470500000000093e-02 7.258874414000000108e+00 0.000000000000000000e+00 7.008539299999999583e-01 -6.485759629999999776e-01 3.105335389500000076e+01
4.352055535999999947e+00 0.000000000000000000e+00 0.000000000000000000e+00 -9.376716899999999744e-02 7.214438857000000205e+00 0.000000000000000000e+00 6.965636179999999955e-01 -6.446056730000000456e-01 3.086325926199999969e+01
4.324159402000000263e+00 0.000000000000000000e+00 0.000000000000000000e+00 -9.316613299999999820e-02 7.168195201999999711e+00 0.000000000000000000e+00 6.920987320000000498e-01 -6.404738309999999935e-01 3.066542961200000050e+01
4.317204821999999886e+00 0.000000000000000000e+00 0.000000000000000000e+00 -9.301629399999999936e-02 7.156666537000000439e+00 0.000000000000000000e+00 6.909856239999999650e-01 -6.394437520000000319e-01 3.061611015700000138e+01
4.210307828000000363e+00 0.000000000000000000e+00 0.000000000000000000e+00 5.781680399999999942e-02 7.525080866999999785e+00 0.000000000000000000e+00 -3.794515500000000263e-01 1.657345389999999863e-01 2.990612800999999976e+01
4.298310589999999820e+00 0.000000000000000000e+00 0.000000000000000000e+00 1.546091079999999951e-01 7.198585758000000112e+00 0.000000000000000000e+00 8.099144520000000069e-01 1.098786350000000023e-01 3.076127031300000070e+01
4.353182800999999991e+00 0.000000000000000000e+00 0.000000000000000000e+00 -9.379145699999999475e-02 7.216307534000000246e+00 0.000000000000000000e+00 6.967440419999999524e-01 -6.447726379999999535e-01 3.087125343099999952e+01
4.169572125000000185e+00 0.000000000000000000e+00 0.000000000000000000e+00 -8.418499999999999443e-05 7.221862069000000162e+00 0.000000000000000000e+00 -1.405909999999999961e-04 1.728160000000000069e-04 2.942135742600000015e+01
4.285595013000000009e+00 0.000000000000000000e+00 0.000000000000000000e+00 -5.485631999999999835e-03 7.513402708000000096e+00 0.000000000000000000e+00 1.129802669999999953e-01 1.048146519999999943e-01 3.113782833899999858e+01
4.164080192000000125e+00 0.000000000000000000e+00 0.000000000000000000e+00 -8.407399999999999498e-05 7.212349826999999713e+00 0.000000000000000000e+00 -1.404060000000000106e-04 1.725879999999999949e-04 2.938260522099999861e+01
4.334744630000000321e+00 0.000000000000000000e+00 0.000000000000000000e+00 -9.339419699999999824e-02 7.185742422999999768e+00 0.000000000000000000e+00 6.937929400000000246e-01 -6.420416639999999564e-01 3.074049635600000130e+01
4.371583185000000427e+00 0.000000000000000000e+00 0.000000000000000000e+00 -9.418790200000000390e-02 7.246810004000000305e+00 0.000000000000000000e+00 6.996890949999999831e-01 -6.474980150000000378e-01 3.100174253300000160e+01
4.230614293000000359e+00 0.000000000000000000e+00 0.000000000000000000e+00 1.521740900000000118e-01 7.085211540000000419e+00 0.000000000000000000e+00 7.971586939999999455e-01 1.081480999999999970e-01 3.027679529699999961e+01
4.288774680000000394e+00 0.000000000000000000e+00 0.000000000000000000e+00 -8.659200000000000035e-05 7.428325560000000216e+00 0.000000000000000000e+00 -1.446100000000000131e-04 1.777559999999999969e-04 3.026247514499999980e+01
4.291614516000000101e+00 0.000000000000000000e+00 0.000000000000000000e+00 -9.246493799999999652e-02 7.114245271999999787e+00 0.000000000000000000e+00 6.868897950000000252e-01 -6.356534379999999596e-01 3.043463263399999974e+01
4.273818483000000334e+00 0.000000000000000000e+00 0.000000000000000000e+00 -8.629000000000000223e-05 7.402420840999999641e+00 0.000000000000000000e+00 -1.441059999999999921e-04 1.771359999999999927e-04 3.015694114500000111e+01
4.320993070000000102e+00 0.000000000000000000e+00 0.000000000000000000e+00 1.554249910000000123e-01 7.236573188999999573e+00 0.000000000000000000e+00 8.141884259999999651e-01 1.104584720000000020e-01 3.092359965099999997e+01
4.295373311999999721e+00 0.000000000000000000e+00 0.000000000000000000e+00 -9.254592300000000216e-02 7.120476260000000224e+00 0.000000000000000000e+00 6.874914050000000554e-01 -6.362101730000000455e-01 3.046128870600000127e+01
4.240950930000000341e+00 0.000000000000000000e+00 0.000000000000000000e+00 -4.772744899999999818e-02 7.423357617999999825e+00 0.000000000000000000e+00 -5.513797099999999674e-01 4.671105369999999923e-01 2.975544033299999924e+01
4.127880462000000250e+00 0.000000000000000000e+00 0.000000000000000000e+00 5.668489399999999956e-02 7.377758480999999868e+00 0.000000000000000000e+00 -3.720228320000000255e-01 1.624898680000000095e-01 2.932064032999999981e+01
4.439004215999999836e+00 0.000000000000000000e+00 0.000000000000000000e+00 1.596698209999999896e-01 7.434212084000000331e+00 0.000000000000000000e+00 8.364248220000000122e-01 1.134752160000000037e-01 3.176815768899999881e+01
4.175809993999999747e+00 0.000000000000000000e+00 0.000000000000000000e+00 -4.699435600000000102e-02 7.309334967999999932e+00 0.000000000000000000e+00 -5.429105269999999761e-01 4.599357270000000164e-01 2.929839726299999825e+01
4.108030381999999925e+00 0.000000000000000000e+00 0.000000000000000000e+00 -4.623156800000000066e-02 7.190693581999999751e+00 0.000000000000000000e+00 -5.340982810000000081e-01 4.524702859999999993e-01 2.882284066800000133e+01
4.331873884000000174e+00 0.000000000000000000e+00 0.000000000000000000e+00 -4.875069199999999825e-02 7.582509094999999810e+00 0.000000000000000000e+00 -5.632008969999999781e-01 4.771250530000000212e-01 3.039337568899999908e+01
4.162753160000000285e+00 0.000000000000000000e+00 0.000000000000000000e+00 -8.404700000000000354e-05 7.210051355000000051e+00 0.000000000000000000e+00 -1.403610000000000068e-04 1.725329999999999963e-04 2.937324140799999839e+01
4.384236667999999781e+00 0.000000000000000000e+00 0.000000000000000000e+00 -9.446052800000000194e-02 7.267785789000000385e+00 0.000000000000000000e+00 7.017143350000000224e-01 -6.493721890000000441e-01 3.109147662299999837e+01
4.280920464000000258e+00 0.000000000000000000e+00 0.000000000000000000e+00 -4.817726399999999742e-02 7.493320264000000286e+00 0.000000000000000000e+00 -5.565762779999999799e-01 4.715128969999999864e-01 3.003587533800000031e+01
4.116452156000000251e+00 0.000000000000000000e+00 0.000000000000000000e+00 5.652795900000000262e-02 7.357332675000000322e+00 0.000000000000000000e+00 -3.709928619999999788e-01 1.620400039999999875e-01 2.923946422399999889e+01
4.289128447000000399e+00 0.000000000000000000e+00 0.000000000000000000e+00 -9.241137400000000446e-02 7.110124095999999838e+00 0.000000000000000000e+00 6.864918899999999935e-01 -6.352852129999999597e-01 3.041700230400000038e+01
4.318959270999999767e+00 0.000000000000000000e+00 0.000000000000000000e+00 -5.528339000000000170e-03 7.571896126999999588e+00 0.000000000000000000e+00 1.138598420000000028e-01 1.056306560000000033e-01 3.138024287700000059e+01
4.117852477999999650e+00 0.000000000000000000e+00 0.000000000000000000e+00 5.654718799999999823e-02 7.359835470000000157e+00 0.000000000000000000e+00 -3.711190650000000257e-01 1.620951270000000055e-01 2.924941081700000112e+01
4.397029261000000133e+00 0.000000000000000000e+00 0.000000000000000000e+00 -9.473615000000000508e-02 7.288992176999999906e+00 0.000000000000000000e+00 7.037618399999999719e-01 -6.512669660000000027e-01 3.118219722499999946e+01
4.401664373000000019e+00 0.000000000000000000e+00 0.000000000000000000e+00 -9.483601599999999521e-02 7.296675840999999885e+00 0.000000000000000000e+00 7.045037079999999508e-01 -6.519534970000000484e-01 3.121506782100000166e+01
4.273306383000000430e+00 0.000000000000000000e+00 0.000000000000000000e+00 -5.469901999999999577e-03 7.491858576000000269e+00 0.000000000000000000e+00 1.126563039999999988e-01 1.045141039999999966e-01 3.104854289600000072e+01
4.450353173999999967e+00 0.000000000000000000e+00 0.000000000000000000e+00 -8.985399999999999724e-05 7.708185832999999931e+00 0.000000000000000000e+00 -1.500589999999999943e-04 1.844530000000000041e-04 3.140260618699999995e+01
4.508347887000000220e+00 0.000000000000000000e+00 0.000000000000000000e+00 1.621640950000000081e-01 7.550345237000000154e+00 0.000000000000000000e+00 8.494909880000000024e-01 1.152478630000000059e-01 3.226442229199999900e+01
4.160425757999999696e+00 0.000000000000000000e+00 0.000000000000000000e+00 -8.399999999999999535e-05 7.206020204999999734e+00 0.000000000000000000e+00 -1.402829999999999984e-04 1.724370000000000026e-04 2.935681878500000153e+01
4.221619655999999665e+00 0.000000000000000000e+00 0.000000000000000000e+00 1.518505549999999982e-01 7.070147793000000291e+00 0.000000000000000000e+00 7.954638689999999901e-01 1.079181679999999949e-01 3.021242431800000006e+01
4.209954824000000428e+00 0.000000000000000000e+00 0.000000000000000000e+00 5.781195599999999768e-02 7.524449942999999585e+00 0.000000000000000000e+00 -3.794197360000000074e-01 1.657206430000000008e-01 2.990362059499999958e+01
4.353378339999999902e+00 0.000000000000000000e+00 0.000000000000000000e+00 -9.379566999999999766e-02 7.216631679999999882e+00 0.000000000000000000e+00 6.967753380000000218e-01 -6.448016009999999465e-01 3.087264012400000013e+01
4.559150065999999946e+00 0.000000000000000000e+00 0.000000000000000000e+00 -9.205100000000000348e-05 7.896626308000000094e+00 0.000000000000000000e+00 -1.537269999999999869e-04 1.889620000000000113e-04 3.217029940799999821e+01
4.168487329999999602e+00 0.000000000000000000e+00 0.000000000000000000e+00 -4.691194800000000192e-02 7.296517382000000218e+00 0.000000000000000000e+00 -5.419584840000000181e-01 4.591291880000000214e-01 2.924701985000000093e+01
4.397852355000000379e+00 0.000000000000000000e+00 0.000000000000000000e+00 -9.475388399999999656e-02 7.290356627000000422e+00 0.000000000000000000e+00 7.038935790000000470e-01 -6.513888789999999762e-01 3.118803431999999987e+01
4.148268224999999809e+00 0.000000000000000000e+00 0.000000000000000000e+00 5.696486299999999753e-02 7.414197517999999931e+00 0.000000000000000000e+00 -3.738602670000000239e-01 1.632924119999999979e-01 2.946545611699999867e+01
4.356380451999999792e+00 0.000000000000000000e+00 0.000000000000000000e+00 -5.576237999999999854e-03 7.637502046999999905e+00 0.000000000000000000e+00 1.148463690000000037e-01 1.065458819999999945e-01 3.165213378300000002e+01
4.204638180999999975e+00 0.000000000000000000e+00 0.000000000000000000e+00 5.773894699999999880e-02 7.514947508999999748e+00 0.000000000000000000e+00 -3.789405759999999734e-01 1.655113589999999968e-01 2.986585608300000061e+01
4.192686540999999600e+00 0.000000000000000000e+00 0.000000000000000000e+00 -8.465200000000000198e-05 7.261897142999999666e+00 0.000000000000000000e+00 -1.413709999999999988e-04 1.737739999999999934e-04 2.958445749599999886e+01
4.197159513999999980e+00 0.000000000000000000e+00 0.000000000000000000e+00 5.763624800000000103e-02 7.501580892999999861e+00 0.000000000000000000e+00 -3.782665660000000263e-01 1.652169679999999918e-01 2.981273456399999944e+01
4.361917637000000347e+00 0.000000000000000000e+00 0.000000000000000000e+00 -9.397965299999999633e-02 7.230787344000000338e+00 0.000000000000000000e+00 6.981420860000000506e-01 -6.460664000000000406e-01 3.093319783900000175e+01
4.165580670999999846e+00 0.000000000000000000e+00 0.000000000000000000e+00 -5.332011000000000216e-03 7.302996433999999759e+00 0.000000000000000000e+00 1.098163530000000054e-01 1.018794090000000041e-01 3.026584067800000000e+01
4.447839959999999593e+00 0.000000000000000000e+00 0.000000000000000000e+00 -9.583089200000000085e-02 7.373221498000000373e+00 0.000000000000000000e+00 7.118942919999999841e-01 -6.587928039999999541e-01 3.154252897299999958e+01
4.185595301000000212e+00 0.000000000000000000e+00 0.000000000000000000e+00 -8.450799999999999794e-05 7.249614838000000283e+00 0.000000000000000000e+00 -1.411309999999999876e-04 1.734799999999999992e-04 2.953442025100000023e+01
4.141822978000000433e+00 0.000000000000000000e+00 0.000000000000000000e+00 5.687635600000000291e-02 7.402677931000000378e+00 0.000000000000000000e+00 -3.732793930000000149e-01 1.630387010000000081e-01 2.941967505099999869e+01
4.353890555999999634e+00 0.000000000000000000e+00 0.000000000000000000e+00 -9.380670600000000359e-02 7.217480784000000149e+00 0.000000000000000000e+00 6.968573200000000023e-01 -6.448774670000000375e-01 3.087627257899999833e+01
4.141640090000000107e+00 0.000000000000000000e+00 0.000000000000000000e+00 -8.362100000000000457e-05 7.173482692000000327e+00 0.000000000000000000e+00 -1.396489999999999906e-04 1.716579999999999885e-04 2.922426324899999983e+01
4.187483208999999817e+00 0.000000000000000000e+00 0.000000000000000000e+00 5.750337099999999757e-02 7.484286436999999736e+00 0.000000000000000000e+00 -3.773944949999999965e-01 1.648360700000000012e-01 2.974400305099999997e+01
4.549368001000000383e+00 0.000000000000000000e+00 0.000000000000000000e+00 -9.185300000000000300e-05 7.879683387000000039e+00 0.000000000000000000e+00 -1.533969999999999952e-04 1.885570000000000041e-04 3.210127514399999882e+01
4.263928631999999830e+00 0.000000000000000000e+00 0.000000000000000000e+00 -8.608999999999999736e-05 7.385291232000000150e+00 0.000000000000000000e+00 -1.437730000000000073e-04 1.767259999999999881e-04 3.008715632399999862e+01
4.158685563999999779e+00 0.000000000000000000e+00 0.000000000000000000e+00 -8.396499999999999992e-05 7.203006120999999595e+00 0.000000000000000000e+00 -1.402239999999999910e-04 1.723639999999999916e-04 2.934453961999999905e+01
4.381677479999999569e+00 0.000000000000000000e+00 0.000000000000000000e+00 1.576077929999999960e-01 7.338204263999999810e+00 0.000000000000000000e+00 8.256229609999999886e-01 1.120097599999999999e-01 3.135789342400000024e+01
4.412836443999999858e+00 0.000000000000000000e+00 0.000000000000000000e+00 1.587285730000000117e-01 7.390387666999999716e+00 0.000000000000000000e+00 8.314941270000000273e-01 1.128062840000000067e-01 3.158088552499999935e+01
4.189152784000000018e+00 0.000000000000000000e+00 0.000000000000000000e+00 -8.458000000000000674e-05 7.255776537000000026e+00 0.000000000000000000e+00 -1.412510000000000068e-04 1.736270000000000098e-04 2.955952257999999944e+01
4.254914624999999617e+00 0.000000000000000000e+00 0.000000000000000000e+00 -9.167422100000000018e-02 7.053407556999999883e+00 0.000000000000000000e+00 6.810158330000000149e-01 -6.302176259999999752e-01 3.017436981899999893e+01
4.235096951000000054e+00 0.000000000000000000e+00 0.000000000000000000e+00 -4.766156900000000085e-02 7.413110817999999824e+00 0.000000000000000000e+00 -5.506186159999999497e-01 4.664657629999999777e-01 2.971436753800000119e+01
4.147301065999999814e+00 0.000000000000000000e+00 0.000000000000000000e+00 -8.373499999999999704e-05 7.183287724999999568e+00 0.000000000000000000e+00 -1.398399999999999893e-04 1.718930000000000024e-04 2.926420826200000036e+01
4.342479285999999661e+00 0.000000000000000000e+00 0.000000000000000000e+00 -9.356084400000000412e-02 7.198564227000000315e+00 0.000000000000000000e+00 6.950309019999999505e-01 -6.431872849999999975e-01 3.079534783400000109e+01
4.278177155999999925e+00 0.000000000000000000e+00 0.000000000000000000e+00 5.874879899999999738e-02 7.646383678000000295e+00 0.000000000000000000e+00 -3.855682340000000097e-01 1.684061460000000066e-01 3.038820886399999921e+01
4.158400214000000261e+00 0.000000000000000000e+00 0.000000000000000000e+00 1.495765689999999926e-01 6.964271177999999729e+00 0.000000000000000000e+00 7.835516679999999790e-01 1.063020759999999953e-01 2.975998834600000009e+01
4.271077100000000293e+00 0.000000000000000000e+00 0.000000000000000000e+00 5.865130000000000343e-02 7.633693754000000276e+00 0.000000000000000000e+00 -3.849283450000000051e-01 1.681266600000000111e-01 3.033777664599999824e+01
4.153767000000000209e+00 0.000000000000000000e+00 0.000000000000000000e+00 5.704037399999999786e-02 7.424025475999999735e+00 0.000000000000000000e+00 -3.743558410000000225e-01 1.635088660000000027e-01 2.950451432599999890e+01
4.399616393999999708e+00 0.000000000000000000e+00 0.000000000000000000e+00 -8.883000000000000162e-05 7.620307745999999938e+00 0.000000000000000000e+00 -1.483479999999999966e-04 1.823499999999999871e-04 3.104459704799999997e+01
4.443977680999999791e+00 0.000000000000000000e+00 0.000000000000000000e+00 1.598487150000000023e-01 7.442541383000000010e+00 0.000000000000000000e+00 8.373619530000000477e-01 1.136023540000000026e-01 3.180375076700000037e+01
4.372268734000000379e+00 0.000000000000000000e+00 0.000000000000000000e+00 -9.420267300000000066e-02 7.247946445000000182e+00 0.000000000000000000e+00 6.997988200000000436e-01 -6.475995559999999651e-01 3.100660420999999900e+01
4.148374683000000118e+00 0.000000000000000000e+00 0.000000000000000000e+00 5.696632499999999821e-02 7.414387790000000145e+00 0.000000000000000000e+00 -3.738698610000000255e-01 1.632966020000000129e-01 2.946621229699999844e+01
4.203280589000000234e+00 0.000000000000000000e+00 0.000000000000000000e+00 5.772030400000000006e-02 7.512521085999999571e+00 0.000000000000000000e+00 -3.788182239999999812e-01 1.654579180000000094e-01 2.985621301100000125e+01
4.285057949999999671e+00 0.000000000000000000e+00 0.000000000000000000e+00 -5.484944000000000278e-03 7.512461142000000258e+00 0.000000000000000000e+00 1.129661089999999951e-01 1.048015169999999968e-01 3.113392620100000130e+01
4.187521745999999823e+00 0.000000000000000000e+00 0.000000000000000000e+00 5.750390100000000310e-02 7.484355314000000092e+00 0.000000000000000000e+00 -3.773979679999999726e-01 1.648375870000000076e-01 2.974427677899999978e+01
4.147614117999999905e+00 0.000000000000000000e+00 0.000000000000000000e+00 -8.374199999999999884e-05 7.183829942000000024e+00 0.000000000000000000e+00 -1.398509999999999998e-04 1.719059999999999902e-04 2.926641721600000068e+01
4.414206618999999776e+00 0.000000000000000000e+00 0.000000000000000000e+00 -9.510624500000000592e-02 7.317467226999999852e+00 0.000000000000000000e+00 7.065111440000000353e-01 -6.538111949999999561e-01 3.130401305399999856e+01
4.242976932000000367e+00 0.000000000000000000e+00 0.000000000000000000e+00 -5.431079999999999589e-03 7.438685708000000396e+00 0.000000000000000000e+00 1.118567349999999988e-01 1.037723229999999996e-01 3.082817834400000123e+01
4.142099492999999910e+00 0.000000000000000000e+00 0.000000000000000000e+00 -5.301954999999999689e-03 7.261829793000000421e+00 0.000000000000000000e+00 1.091973239999999984e-01 1.013051199999999985e-01 3.009523358699999918e+01
4.216387816000000122e+00 0.000000000000000000e+00 0.000000000000000000e+00 -4.745101699999999811e-02 7.380362360000000344e+00 0.000000000000000000e+00 -5.481861799999999674e-01 4.644050849999999953e-01 2.958310014699999968e+01
4.180464148000000435e+00 0.000000000000000000e+00 0.000000000000000000e+00 1.503702030000000078e-01 7.001222700999999660e+00 0.000000000000000000e+00 7.877090920000000551e-01 1.068661010000000050e-01 2.991789099700000065e+01
