-1.614399999999999863e-02 1.900999999999999912e-03 3.783440000000000136e-01 -1.789682999999999913e+00 1.814132999999999996e+00 1.730973000000000095e+00 3.347450000000000148e-01 1.108737000000000084e+00 3.264040000000000274e-01 6.649000000000000396e-03 -8.114280000000000381e-01 -4.660880000000000023e-01 2.378041000000000071e+00 -4.450720000000000232e-01 -2.067090000000000038e-01 -5.845369999999999733e-01 3.986250000000000071e-01 1.146188999999999902e+00 -8.008290000000000131e-01 4.514650000000000052e-01 2.581999999999999920e-02 3.787280000000000091e-01 1.461564000000000085e+00 -3.826510000000000189e-01 -4.954569999999999808e-01 9.567050000000000276e-01 -7.916940000000000088e-01 3.323940000000000228e-01 1.159832999999999892e+00 5.174800000000000233e-02 7.538699999999999568e-02 -3.875779999999999781e-01 -3.810709999999999931e-01 -3.035419999999999785e-01 -4.822200000000000097e-02 -1.521134999999999904e+00 3.884210000000000163e-01 1.092068999999999956e+00 1.140320999999999918e+00 -1.447799999999999920e-01 -8.538339999999999819e-01 -1.919369999999999965e-01 1.822000000000000052e-03 1.831740000000000035e-01 7.072810000000000485e-01 -5.241249999999999520e-01 -1.716459999999999930e-01 3.080519999999999925e-01 2.800460000000000171e-01 -2.772060000000000080e-01 1.883108000000000004e+00 1.447891000000000039e+00 -1.768842999999999943e+00 -1.704390000000000072e+00 -1.891161000000000092e+00 1.290534000000000070e+00 9.951489999999999503e-01 -1.070200000000000040e-01 -6.060879999999999601e-01 -9.487069999999999670e-01 7.934729999999999839e-01 -2.186690000000000023e-01 -5.222299999999999859e-02 -1.643499999999999961e-01 -3.238179999999999947e-01 3.455699999999999883e-01 5.252040000000000042e-01 -7.997020000000000239e-01 -9.021789999999999532e-01 -1.015569999999999945e-01 -1.276299999999999935e-01 -9.986699999999999466e-01 1.332180000000000031e-01 4.503820000000000046e-01 -1.412349999999999994e+00 5.775120000000000253e-01 -2.347176999999999847e+00 1.032963000000000076e+00 -3.231899999999999773e-01 2.892129999999999979e-01 -5.782009999999999650e-01 2.295399999999999940e-01 -2.956619999999999804e-01 8.411699999999999733e-02 -5.222489999999999633e-01 -1.156350999999999907e+00 5.992009999999999836e-01 -1.144479999999999942e-01 -1.940899999999999917e-02 -2.172350000000000114e-01
-2.301620000000000055e-01 9.166520000000000223e-01 1.363939999999999875e-01 3.934849999999999737e-01 -6.741340000000000110e-01 1.037255999999999956e+00 -3.195330000000000115e-01 -1.501524999999999999e+00 -1.326330000000000009e-01 -2.020720000000000016e-01 2.924399999999999777e-01 -9.240979999999999750e-01 -3.100859999999999728e-01 1.988779999999999992e-01 3.923619999999999886e-01 -2.012100000000000000e-02 -6.237000000000000183e-02 4.402249999999999774e-01 1.504685000000000050e+00 5.431230000000000224e-01 1.486981000000000108e+00 9.739599999999999647e-02 1.197379999999999972e-01 3.063679999999999737e-01 1.609260000000000135e-01 1.016839999999999966e-01 -5.448299999999999671e-02 2.195670000000000122e-01 1.763979999999999992e-01 -2.269740000000000091e-01 1.417039999999999966e-01 -7.843500000000000472e-02 -8.319029999999999481e-01 4.325979999999999825e-01 3.090370000000000061e-01 -3.357939999999999814e-01 4.928489999999999815e-01 -1.186959999999999960e-01 -6.641920000000000046e-01 -9.231780000000000541e-01 -6.397479999999999833e-01 6.557460000000000511e-01 2.341599999999999931e-02 1.269811999999999941e+00 -3.710120000000000084e-01 7.500339999999999785e-01 2.821500000000000050e-02 6.154190000000000493e-01 1.595439999999999914e-01 7.149950000000000472e-01 -9.136389999999999789e-01 -4.090440000000000187e-01 -3.069700000000000206e-01 8.473260000000000236e-01 9.004860000000000086e-01 1.402404999999999902e+00 1.006040999999999963e+00 -3.413860000000000228e-01 -5.834700000000000442e-01 -8.678940000000000543e-01 -1.215397999999999978e+00 -1.247297000000000100e+00 -2.341000000000000025e-01 1.726060000000000094e-01 6.673280000000000323e-01 -1.843079999999999996e-01 -1.126769999999999994e-01 -4.794939999999999758e-01 -5.325450000000000461e-01 -4.684909999999999908e-01 -4.176239999999999952e-01 5.727379999999999693e-01 5.535849999999999937e-01 -6.598000000000000531e-01 -6.385020000000000140e-01 -5.021200000000000108e-01 6.399719999999999853e-01 -1.058834999999999971e+00 4.548670000000000213e-01 5.825050000000000505e-01 5.891210000000000058e-01 -4.477410000000000001e-01 -8.401389999999999691e-01 9.982599999999999807e-02 -3.742659999999999876e-01 1.545860000000000012e-01 7.159000000000000433e-03 -5.814719999999999889e-01 -5.080620000000000136e-01 -2.220499999999999974e-01
4.247839999999999949e-01 -3.083460000000000090e-01 -1.905189999999999939e-01 -6.543609999999999705e-01 1.036640000000000061e-01 -1.106525999999999899e+00 -1.076140000000000013e-01 -2.655210000000000070e-01 1.217376000000000014e+00 3.754290000000000127e-01 4.565870000000000206e-01 4.145969999999999933e-01 6.807189999999999630e-01 7.633250000000000313e-01 4.313400000000000012e-01 -6.806199999999999750e-02 -2.541919999999999735e-01 -2.163009999999999933e-01 -4.658600000000000241e-02 2.645629999999999926e-01 2.919680000000000053e-01 -1.050750000000000073e+00 -9.019900000000000140e-02 -9.716400000000000037e-02 -4.339910000000000156e-01 1.035189999999999999e-01 -4.070429999999999882e-01 -1.382599999999999975e-02 -2.173239999999999894e-01 1.853269999999999917e-01 -1.732730000000000103e-01 6.724459999999999882e-01 5.502699999999999952e-02 -4.817980000000000040e-01 3.355440000000000089e-01 -3.260899999999999910e-02 -4.021700000000000275e-01 7.269060000000000521e-01 -1.308499999999999941e-02 -4.627800000000000247e-01 -6.419599999999999751e-01 1.178730000000000055e+00 1.462249999999999939e-01 3.173059999999999770e-01 -1.665490000000000026e-01 -3.294790000000000219e-01 -4.290200000000000125e-01 -8.527300000000000157e-02 4.107680000000000220e-01 -5.370489999999999986e-01 8.402690000000000436e-01 1.256121000000000043e+00 3.904099999999999793e-01 -4.855530000000000124e-01 7.450099999999999500e-01 4.315800000000000192e-01 2.572070000000000189e-01 -6.626530000000000475e-01 -2.088839999999999864e-01 -5.070949999999999624e-01 -1.457120000000000082e-01 9.850989999999999469e-01 -3.154049999999999909e-01 1.310191000000000106e+00 -1.046059000000000072e+00 -5.868830000000000435e-01 -1.201292000000000026e+00 -9.234240000000000226e-01 -9.641070000000000473e-01 3.981859999999999844e-01 1.150700000000000056e-01 -5.450690000000000257e-01 2.312300000000000119e-02 -4.328219999999999845e-01 1.282176999999999900e+00 1.071374999999999966e+00 7.169740000000000002e-01 -7.759599999999999831e-02 1.284800000000000005e-02 -3.478919999999999790e-01 1.255030000000000034e-01 3.327999999999999708e-02 -6.660840000000000094e-01 3.693179999999999796e-01 -9.012099999999999556e-01 -5.523700000000000276e-01 5.604459999999999997e-01 2.474979999999999958e-01 5.381550000000000500e-01 -1.412504999999999900e+00
-2.446999999999999870e-02 2.363609999999999878e-01 -1.139270000000000005e-01 8.569599999999999440e-02 2.130313999999999819e+00 -6.201579999999999870e-01 -1.060167999999999999e+00 8.315399999999999459e-01 4.783549999999999747e-01 2.082289999999999974e-01 2.652900000000000050e-02 9.286170000000000258e-01 -2.966750000000000220e-01 -3.540960000000000218e-01 -3.262610000000000232e-01 1.878600999999999965e+00 -1.891242000000000090e+00 -5.606109999999999705e-01 1.349925999999999959e+00 6.622869999999999591e-01 -1.066151000000000071e+00 -2.334259999999999946e-01 1.121129999999999960e+00 -1.712500000000000133e-02 8.040850000000000497e-01 -3.249400000000000066e-01 1.662997000000000059e+00 -2.012579999999999925e-01 -4.236969999999999903e-01 3.860179999999999723e-01 4.109199999999999658e-02 1.737809999999999910e-01 -7.081190000000000540e-01 1.214950000000000058e-01 -2.314740000000000131e-01 3.308300000000000129e-02 -3.618400000000000089e-02 -1.627116000000000007e+00 2.808930000000000038e-01 -2.945180000000000020e-01 -4.957849999999999757e-01 -5.923760000000000137e-01 1.579510000000000081e-01 2.350820000000000132e-01 3.170100000000000140e-01 9.055830000000000268e-01 -9.774829999999999908e-01 -5.320479999999999654e-01 -2.444630000000000136e-01 -2.693539999999999823e-01 1.538249999999999895e-01 3.742240000000000011e-01 -8.959300000000000597e-02 -8.057000000000000273e-02 1.837540000000000007e-01 9.353839999999999932e-01 -6.441780000000000284e-01 -1.660223000000000004e+00 9.937799999999999967e-01 3.637489999999999890e-01 -1.178763000000000005e+00 -1.228053999999999979e+00 -9.991830000000000434e-01 -2.291670000000000096e-01 -4.399549999999999850e-01 -4.604599999999999804e-01 -2.636069999999999802e-01 -1.224199999999999941e-02 6.318970000000000420e-01 9.000500000000000167e-02 3.369059999999999833e-01 -7.086379999999999901e-01 2.958629999999999871e-01 5.454080000000000039e-01 5.869180000000000508e-01 -5.846149999999999958e-01 -8.342479999999999896e-01 -7.414809999999999457e-01 -4.447199999999999764e-02 7.402739999999999876e-01 7.915950000000000486e-01 4.361600000000000199e-02 -5.972110000000000474e-01 6.933399999999999563e-01 1.484580000000000066e-01 9.914819999999999744e-01 -1.805470000000000130e-01 -3.365699999999999803e-01 -1.637669999999999959e-01 1.043535000000000101e+00
-2.271660000000000068e-01 3.579899999999999749e-02 -4.023630000000000262e-01 -7.364999999999999325e-02 1.313979999999999870e-01 -4.762399999999999967e-01 -2.511070000000000246e-01 -7.015059999999999629e-01 6.308800000000000519e-02 1.045179999999999998e-01 6.642199999999999493e-02 -2.713700000000000140e-02 2.518380000000000063e-01 -5.353750000000000453e-01 -3.210230000000000028e-01 -6.371200000000000474e-02 1.033349999999999963e-01 -2.444929999999999881e-01 -3.777659999999999907e-01 -9.224000000000000254e-02 -1.378330000000000111e-01 -1.314939999999999998e-01 -1.813029999999999919e-01 -1.173590000000000050e-01 -9.858300000000000396e-02 1.160709999999999936e-01 -6.099020000000000552e-01 9.255199999999999538e-02 1.166050000000000003e-01 -5.084990000000000343e-01 -2.226950000000000041e-01 -4.737299999999999844e-01 1.218889999999999973e-01 -2.115480000000000138e-01 1.119000000000000029e-02 -8.361200000000000576e-02 2.203880000000000006e-01 -2.571140000000000092e-01 -1.073029999999999956e-01 -1.986989999999999867e-01 1.685170000000000001e-01 2.022329999999999961e-01 -1.269800000000000095e-01 2.827350000000000141e-01 -2.056590000000000085e-01 5.371449999999999836e-01 2.825559999999999738e-01 -1.787529999999999952e-01 2.345770000000000077e-01 -1.859059999999999879e-01 2.890209999999999724e-01 -8.978999999999999482e-02 1.533579999999999943e-01 3.045399999999999843e-02 1.476919999999999900e-01 -2.609839999999999938e-01 -3.580099999999999949e-02 -4.569929999999999826e-01 1.521450000000000025e-01 6.434220000000000494e-01 1.180999999999999975e-03 4.156230000000000202e-01 1.133269999999999972e-01 4.026549999999999851e-01 -3.092929999999999846e-01 6.354090000000000016e-01 -1.618330000000000046e-01 2.104040000000000077e-01 5.491840000000000055e-01 1.344770000000000132e-01 5.402630000000000488e-01 -2.164290000000000103e-01 -1.431807999999999970e+00 -4.666420999999999708e+00 1.909369999999999956e-01 1.381628999999999996e+00 4.866506000000000220e+00 -2.193450000000000122e-01 3.602639999999999731e-01 1.335590000000000110e-01 6.528840000000000199e-01 2.417809999999999959e-01 1.679319999999999979e-01 1.127549999999999941e-01 -6.022899999999999782e-02 -1.964600000000000027e-02 2.805699999999999861e-02 7.335500000000000353e-02 -2.708999999999999742e-01 2.590910000000000157e-01
5.714700000000000335e-02 2.612999999999999767e-01 -9.898460000000000036e-01 3.561957000000000040e+00 3.418614999999999959e+00 -7.717580000000000551e-01 -2.054559999999999997e-01 1.528609999999999969e-01 -3.677010000000000001e-01 -3.680069999999999730e-01 -2.225830000000000031e-01 1.030439999999999967e-01 -1.890719999999999901e-01 1.659299999999999942e-01 2.091109999999999913e-01 -5.395400000000000196e-02 5.754800000000000193e-02 -1.002254999999999896e+00 4.119349999999999956e-01 -3.857559999999999878e-01 2.557880000000000154e-01 -3.479010000000000158e-01 4.626700000000000257e-02 9.265769999999999840e-01 -4.502970000000000028e-01 8.576949999999999852e-01 2.343625999999999987e+00 -8.676070000000000171e-01 -1.516712000000000060e+00 -1.966229999999999922e-01 -2.833539999999999948e-01 4.720509999999999984e-01 2.122449999999999892e-01 2.777180000000000204e-01 2.042410000000000059e-01 -6.672510000000000385e-01 7.540800000000000280e-02 -8.719329999999999581e-01 3.498799999999999827e-02 -3.535565000000000069e+00 -1.923701000000000105e+00 5.017479999999999718e-01 3.512910000000000199e-01 2.820389999999999842e-01 5.233160000000000034e-01 -3.564880000000000271e-01 -7.699209999999999665e-01 -3.697139999999999871e-01 -4.564380000000000104e-01 2.525910000000000100e-01 3.061200000000000032e-01 1.510720000000000118e-01 -7.460200000000000164e-01 -2.932429999999999759e-01 -1.718369999999999898e-01 -7.112429999999999586e-01 1.115619999999999945e-01 3.327120000000000077e-01 5.873099999999999987e-01 9.506670000000000398e-01 -2.204000000000000126e-01 -1.636330000000000007e-01 3.425949999999999829e-01 -9.648500000000000132e-02 4.177259999999999862e-01 -2.028570000000000095e-01 3.596199999999999952e-01 1.626700000000000021e-02 1.771310000000000107e-01 2.035710000000000020e-01 -6.646100000000000618e-02 1.565719999999999890e-01 4.602450000000000152e-01 9.322300000000000031e-01 -2.807999999999999940e-01 1.181320000000000009e-01 -1.420180000000000053e-01 -1.039919000000000038e+00 6.966999999999999582e-02 -4.654170000000000251e-01 8.601820000000000022e-01 1.765790000000000137e-01 -8.190799999999999470e-02 2.173950000000000049e-01 6.473569999999999602e-01 1.399229999999999918e-01 -7.456089999999999662e-01 3.484459999999999780e-01 -1.972889999999999922e-01 -1.305093999999999976e+00
2.554029999999999911e-01 2.634070000000000022e-01 4.870490000000000097e-01 -5.116899999999999782e-01 2.583030000000000048e-01 1.733860000000000123e-01 4.675499999999999795e-02 -1.663080000000000114e-01 8.222899999999999654e-02 5.306809999999999583e-01 3.944039999999999768e-01 2.405460000000000098e-01 4.876799999999999885e-02 -2.003900000000000126e-01 -1.037242999999999915e+00 -7.209999999999999742e-02 1.861119999999999997e-01 -1.580813999999999941e+00 -6.684099999999999764e-02 5.506959999999999633e-01 2.451629999999999920e-01 1.134489999999999943e-01 -2.411580000000000112e-01 6.455899999999999972e-01 -1.108139999999999958e-01 -5.726149999999999851e-01 -3.318479999999999763e-01 8.397829999999999462e-01 -8.502500000000000335e-02 -1.183081999999999967e+00 -2.961599999999999996e-02 5.514419999999999877e-01 1.129623000000000044e+00 3.682790000000000230e-01 -7.128700000000000314e-02 1.499649999999999872e-01 2.266140000000000099e-01 -3.491489999999999871e-01 -3.941399999999999765e-02 3.213529999999999998e-01 1.585989999999999900e-01 -3.632710000000000106e-01 -6.378200000000000536e-01 -9.447700000000000542e-02 1.601490000000000136e-01 2.020990000000000009e-01 -1.608660000000000090e-01 1.089019999999999988e-01 -3.634760000000000213e-01 -1.179420000000000052e-01 -4.178660000000000152e-01 1.629039999999999933e-01 -2.576840000000000241e-01 3.117349999999999843e-01 3.762460000000000249e-01 -1.473230000000000095e-01 -1.815640000000000032e-01 -1.819369999999999876e-01 -1.038799999999999966e-02 -9.061600000000000210e-02 -1.309349999999999958e-01 -4.598940000000000250e-01 2.359920000000000073e-01 -1.775720000000000076e-01 1.579830000000000123e-01 2.001739999999999908e-01 3.102600000000000149e-02 -4.733500000000000207e-02 6.037400000000000544e-01 -3.521599999999999731e-02 2.076099999999999890e-01 6.793310000000000182e-01 -2.220429999999999904e-01 1.044512000000000107e+00 8.140260000000000273e-01 -1.099220000000000058e-01 -1.013198999999999961e+00 7.965999999999999748e-01 -8.104400000000000492e-02 -6.006169999999999565e-01 -6.043159999999999643e-01 -3.334909999999999819e-01 2.164800000000000058e-01 -7.422900000000000054e-01 -5.683669999999999556e-01 4.700529999999999986e-01 -1.359539999999999915e-01 1.095249999999999974e-01 1.360570000000000113e-01 -3.559220000000000161e-01
3.368369999999999975e-01 2.976579999999999782e-01 -1.138737000000000110e+00 -8.875979999999999981e-01 -4.324310000000000098e-01 -9.972140000000000448e-01 -7.087710000000000399e-01 -1.480809999999999904e-01 -9.785350000000000437e-01 -2.096659999999999913e-01 -7.264900000000000524e-02 -2.345019999999999882e-01 1.722430000000000072e-01 1.403262000000000009e+00 -5.940879999999999495e-01 5.985249999999999737e-01 -1.759403000000000050e+00 1.745284000000000058e+00 7.674490000000000478e-01 -5.323329999999999451e-01 -2.037299999999999944e-01 2.976269999999999749e-01 8.447750000000000536e-01 3.062070000000000070e-01 -8.224979999999999514e-01 8.018809999999999549e-01 3.789959999999999996e-01 2.455009999999999970e-01 -3.457839999999999803e-01 -8.315879999999999939e-01 -4.721810000000000174e-01 4.467369999999999952e-01 4.268399999999999972e-02 1.818629999999999969e-01 5.356589999999999963e-01 -5.584109999999999907e-01 -4.291499999999999759e-01 8.155080000000000107e-01 6.469970000000000443e-01 9.878959999999999964e-01 -8.412799999999999445e-02 4.260099999999999998e-02 1.879180000000000017e-01 7.909000000000000474e-01 6.464579999999999771e-01 7.356350000000000389e-01 -5.108519999999999728e-01 1.056211000000000011e+00 4.754300000000000193e-02 -1.527570000000000094e+00 5.876949999999999674e-01 -5.150780000000000358e-01 8.036550000000000082e-01 1.616427000000000058e+00 -5.273809999999999887e-01 5.316499999999999698e-02 -4.555109999999999992e-01 2.061709999999999932e-01 -7.038910000000000444e-01 3.077030000000000043e-01 -1.036046999999999940e+00 -1.312270000000000103e-01 -9.576400000000000190e-02 -4.183129999999999904e-01 5.389499999999999846e-02 -5.297469999999999679e-01 -4.467999999999999750e-03 2.316100000000000103e-02 -8.313639999999999919e-01 -2.476319999999999910e-01 9.334660000000000180e-01 -1.162220000000000059e-01 -1.090840000000000004e-01 5.819809999999999706e-01 1.322249000000000008e+00 -2.172080000000000122e-01 -7.402999999999999858e-02 8.434350000000000458e-01 4.915220000000000145e-01 6.394990000000000396e-01 -4.236139999999999906e-01 -3.395399999999999807e-02 -1.447478000000000042e+00 -7.649629999999999486e-01 4.982090000000000130e-01 -8.847800000000000109e-01 3.596960000000000157e-01 8.840900000000000425e-01 -3.705660000000000065e-01 -1.148652999999999924e+00
1.745899999999999883e-02 1.314947000000000088e+00 2.160140000000000116e-01 1.675570000000000115e-01 -2.151440000000000019e-01 3.131200000000000094e-01 8.670959999999999779e-01 1.199659000000000031e+00 7.978210000000000024e-01 3.329010000000000025e-01 -8.300739999999999785e-01 -1.724180999999999964e+00 -3.840470000000000272e-01 1.263030000000000097e+00 -4.486359999999999792e-01 -1.828839999999999910e-01 1.867146999999999890e+00 -4.547590000000000243e-01 -4.534529999999999950e-01 -7.565099999999999603e-02 9.018580000000000485e-01 7.597099999999999687e-02 -9.377379999999999605e-01 2.101369999999999905e-01 1.836689999999999989e-01 -1.614540000000000086e+00 -6.170699999999999796e-02 4.898339999999999916e-01 5.006310000000000482e-01 -5.447149999999999492e-01 5.315600000000000186e-02 -4.746040000000000258e-01 -3.241700000000000137e-02 -4.814840000000000231e-01 1.959780000000000133e-01 7.525600000000000345e-02 3.433490000000000153e-01 -6.474299999999999500e-01 -3.224819999999999909e-01 -6.050200000000000022e-01 -2.639839999999999964e-01 2.916880000000000028e-01 2.914860000000000229e-01 -8.741699999999999471e-02 -2.499730000000000008e-01 -7.755630000000000024e-01 -8.043040000000000189e-01 -9.041350000000000220e-01 6.774000000000000021e-01 -3.865239999999999787e-01 8.377000000000000765e-03 -5.671329999999999982e-01 -2.590990000000000237e-01 -1.017039000000000026e+00 3.478580000000000005e-01 -1.310891000000000028e+00 4.017530000000000268e-01 2.462620000000000087e-01 -1.434086999999999890e+00 1.770309999999999939e-01 2.358030000000000126e-01 1.173832999999999904e+00 -9.299720000000000208e-01 7.457500000000000240e-02 4.774410000000000043e-01 -1.071403000000000105e+00 5.631220000000000114e-01 -4.576439999999999952e-01 -6.148999999999999952e-03 -1.244388000000000050e+00 3.699859999999999816e-01 2.313689999999999802e+00 -5.208979999999999722e-01 -8.704699999999999938e-02 5.323299999999999699e-01 2.016199999999999937e-02 -4.171079999999999788e-01 -1.797779000000000016e+00 -6.115000000000000296e-02 2.380120000000000013e-01 7.904489999999999572e-01 1.459880000000000067e-01 8.097020000000000328e-01 5.807290000000000507e-01 -3.392000000000000050e-03 8.859489999999999865e-01 1.087407999999999930e+00 1.457660000000000067e-01 6.971999999999999899e-03 8.676890000000000436e-01
1.071150000000000019e-01 -1.621519999999999906e-01 4.199669999999999792e-01 -5.318380000000000329e-01 -4.040980000000000127e-01 -7.272009999999999863e-01 -2.877899999999999903e-01 -2.196069999999999967e-01 -3.293209999999999749e-01 -1.050518999999999981e+00 8.189689999999999470e-01 5.312829999999999497e-01 -1.669779999999999875e-01 -7.340560000000000418e-01 5.809680000000000399e-01 -1.009695000000000009e+00 -5.598539999999999628e-01 8.759000000000000119e-02 2.371267000000000014e+00 1.851113000000000008e+00 -4.412000000000000123e-03 1.449850000000000028e-01 -8.343350000000000488e-01 5.009500000000000064e-01 -7.105390000000000317e-01 4.954290000000000083e-01 -5.137939999999999729e-01 3.585030000000000161e-01 4.804120000000000057e-01 2.896329999999999738e-01 1.844480000000000008e-01 -8.248459999999999681e-01 1.186770000000000047e-01 -3.412810000000000010e-01 2.795449999999999879e-01 4.535299999999999748e-02 6.594659999999999966e-01 4.358310000000000239e-01 -5.896749999999999492e-01 1.198869999999999936e-01 -5.761899999999999661e-02 1.986150000000000138e-01 6.115850000000000453e-01 -6.835809999999999942e-01 -5.456980000000000164e-01 3.633299999999999863e-01 4.500339999999999896e-01 4.320930000000000049e-01 7.100099999999999467e-02 -1.308459999999999901e-01 9.883429999999999715e-01 -2.772000000000000158e-02 5.089050000000000518e-01 2.555629999999999846e-01 -1.059429999999999955e-01 3.711869999999999892e-01 -8.489560000000000439e-01 1.054842000000000057e+00 2.067640000000000033e-01 3.278960000000000208e-01 -2.075069000000000052e+00 -1.685216000000000047e+00 -5.588400000000000034e-01 -6.590279999999999472e-01 4.025889999999999747e-01 7.382800000000000473e-02 4.706350000000000255e-01 1.022229000000000054e+00 -5.214330000000000354e-01 3.274099999999999788e-01 -5.536450000000000538e-01 8.740480000000000471e-01 -1.144440000000000041e-01 -2.109810000000000019e-01 -4.167299999999999893e-01 1.254904999999999937e+00 -1.402710000000000068e-01 4.218680000000000208e-01 -6.223480000000000123e-01 -4.224010000000000264e-01 -5.256450000000000289e-01 3.297269999999999923e-01 8.569729999999999848e-01 -6.308230000000000226e-01 -6.618880000000000319e-01 -6.249409999999999688e-01 -6.214939999999999909e-01 -6.402399999999999758e-02 6.846700000000000008e-02 6.873470000000000413e-01
-1.247769999999999990e-01 1.826710000000000000e-01 -6.146340000000000137e-01 1.188844000000000012e+00 9.421270000000000477e-01 -7.116810000000000080e-01 -2.500660000000000105e-01 -1.988499999999999990e-02 -4.177170000000000050e-01 -4.578619999999999912e-01 -3.024160000000000181e-01 1.310290000000000066e-01 -2.943180000000000240e-01 3.042730000000000157e-01 3.961729999999999974e-01 2.797060000000000102e-01 1.088159999999999961e-01 -1.141162000000000010e+00 2.170600000000000029e-01 -1.871869999999999923e-01 -3.283380000000000187e-01 -2.933200000000000252e-01 3.262109999999999732e-01 6.494720000000000493e-01 3.773079999999999767e-01 9.386339999999999684e-01 2.208633999999999986e+00 -3.779330000000000189e-01 -1.408444999999999947e+00 6.812100000000000100e-02 -1.914190000000000058e-01 2.962560000000000193e-01 -1.283019999999999994e-01 -1.093869999999999981e-01 4.018059999999999965e-01 -5.606759999999999522e-01 -1.448520000000000085e-01 -2.874390000000000001e-01 -3.483899999999999775e-01 -1.000329999999999941e+00 -2.178229999999999889e-01 3.396359999999999935e-01 4.806190000000000184e-01 4.611750000000000016e-01 2.747269999999999990e-01 -3.476199999999999846e-01 -5.940999999999999615e-01 -2.413049999999999917e-01 -4.643999999999999691e-03 4.973920000000000008e-01 4.279529999999999723e-01 1.738699999999999968e-02 -8.037159999999999860e-01 -3.046530000000000071e-01 -1.819600000000000037e-02 -3.558290000000000064e-01 -1.193440000000000056e-01 1.919019999999999893e-01 6.480400000000000049e-02 1.281868000000000007e+00 1.809000000000000061e-03 -3.072000000000000078e-02 5.702000000000000401e-01 -8.647499999999999631e-02 -1.668429999999999913e-01 -3.478999999999999888e-03 5.201210000000000555e-01 -1.071659999999999974e-01 2.093919999999999948e-01 -1.804659999999999875e-01 1.785199999999999981e-02 1.891599999999999879e-02 -5.804000000000000131e-02 6.610679999999999890e-01 -7.446150000000000269e-01 1.950139999999999929e-01 -1.394060000000000021e-01 -1.144595000000000029e+00 4.838499999999999746e-02 -5.065439999999999943e-01 1.160641000000000034e+00 3.936350000000000127e-01 -7.112499999999999378e-02 2.418089999999999962e-01 4.764559999999999906e-01 2.302339999999999942e-01 -2.930909999999999904e-01 -4.485390000000000210e-01 -2.346739999999999937e-01 -8.765859999999999763e-01
-2.104729999999999934e-01 5.701420000000000377e-01 2.186210000000000098e-01 8.831100000000000061e-02 1.867132999999999932e+00 8.772399999999999642e-02 -7.722830000000000528e-01 -5.672340000000000160e-01 -4.005000000000000226e-02 -7.479430000000000245e-01 2.036320000000000074e-01 -1.601741000000000081e+00 1.307123999999999953e+00 -2.108919999999999961e-01 -7.085479999999999556e-01 5.628929999999999767e-01 -3.117929999999999868e-01 9.218099999999999905e-02 1.412025000000000086e+00 1.104254999999999987e+00 1.623534000000000033e+00 -3.784609999999999919e-01 -2.827100000000000099e-02 -3.261060000000000070e-01 -5.444189999999999863e-01 -1.003171000000000035e+00 -3.065950000000000064e-01 4.055119999999999836e-01 3.600630000000000219e-01 -2.729409999999999892e-01 -7.113180000000000058e-01 6.378650000000000153e-01 1.229679999999999940e-01 3.245919999999999916e-01 3.074239999999999751e-01 1.899389999999999967e-01 3.210580000000000100e-01 -1.615550000000000042e+00 1.400969999999999993e-01 -2.317420000000000035e-01 -9.312540000000000262e-01 2.639290000000000247e-01 3.605849999999999889e-01 1.046022000000000007e+00 -1.880960000000000132e-01 1.224860000000000060e+00 -5.432369999999999699e-01 7.617100000000000259e-02 -1.382649999999999990e-01 1.562600000000000100e-01 -3.891640000000000099e-01 -9.287399999999999822e-02 -5.059470000000000356e-01 3.417250000000000010e-01 -2.171279999999999877e-01 1.739911999999999903e+00 1.584038000000000057e+00 -6.569920000000000204e-01 -2.961280000000000023e-01 -5.233370000000000521e-01 -1.069976000000000038e+00 -1.311658999999999908e+00 -7.953999999999999959e-02 5.495630000000000237e-01 2.152199999999999946e-01 2.163539999999999908e-01 -7.849140000000000006e-01 -3.983309999999999906e-01 9.145699999999999663e-02 -3.876089999999999813e-01 -4.916110000000000202e-01 1.226799999999999891e+00 3.424690000000000234e-01 -9.559279999999999999e-01 -7.417160000000000419e-01 -4.633160000000000056e-01 7.355070000000000219e-01 -1.247262000000000093e+00 1.078465000000000007e+00 2.703530000000000100e-01 -1.195220000000000032e-01 -3.425300000000000011e-01 -8.068670000000000009e-01 -2.079500000000000098e-02 -5.035000000000000413e-03 8.081939999999999680e-01 8.941300000000000636e-02 -2.221770000000000134e-01 -4.411000000000000337e-02 2.004610000000000003e-01
3.391640000000000210e-01 -1.237182999999999922e+00 -3.438970000000000082e-01 7.889800000000000146e-01 -6.198900000000000243e-02 1.807519999999999960e-01 -4.109280000000000155e-01 -3.299549999999999983e-01 -1.528971000000000080e+00 -1.117189999999999905e+00 9.966460000000000319e-01 -2.913370000000000126e-01 -7.553590000000000027e-01 1.276086999999999971e+00 4.480850000000000111e-01 -4.276309999999999834e-01 -1.067400000000000015e-01 1.854040000000000132e-01 2.741850000000000120e-01 -1.152870000000000006e-01 -6.264189999999999481e-01 5.882859999999999756e-01 -6.131640000000000423e-01 1.930929999999999869e-01 -3.952160000000000117e-01 -2.759849999999999803e-01 6.220569999999999711e-01 -1.983679999999999888e-01 4.525739999999999763e-01 6.705200000000000049e-01 -7.822500000000000286e-02 -1.074435000000000029e+00 4.869620000000000060e-01 3.387680000000000136e-01 5.701760000000000161e-01 -3.210680000000000200e-01 -1.757269999999999943e-01 6.683200000000000252e-01 3.255939999999999945e-01 2.640899999999999845e-02 -8.910200000000000065e-02 1.868599999999999983e-01 1.565237999999999907e+00 -8.150370000000000115e-01 5.998310000000000031e-01 -3.813960000000000128e-01 -1.596140000000000059e-01 2.549699999999999744e-01 -4.389239999999999808e-01 1.850179999999999880e-01 -7.859900000000000220e-02 -6.789659999999999584e-01 8.107189999999999674e-01 -2.321340000000000070e-01 3.158130000000000104e-01 -5.320319999999999494e-01 -4.404190000000000049e-01 -2.376219999999999999e-01 7.764079999999999870e-01 4.036009999999999875e-01 -1.352000000000000077e-02 6.802700000000000413e-02 1.049309999999999965e-01 -3.176229999999999887e-01 1.672790000000000110e-01 3.186669999999999781e-01 1.110618000000000105e+00 -2.658949999999999925e-01 6.598479999999999901e-01 2.848600000000000021e-01 -9.440060000000000118e-01 -5.641760000000000108e-01 9.085729999999999640e-01 -1.898031000000000024e+00 -1.188461999999999907e+00 -5.031780000000000141e-01 1.661786999999999903e+00 -2.382529999999999926e-01 5.932099999999999873e-02 1.251440000000000052e-01 5.038499999999999923e-02 -1.412130000000000052e-01 2.119939999999999880e-01 -1.814119999999999899e-01 2.092779999999999918e-01 3.364789999999999726e-01 2.926320000000000032e-01 -5.384050000000000225e-01 2.117989999999999873e-01 5.095800000000000329e-02