8.012968812000000440e+00 0.000000000000000000e+00 0.000000000000000000e+00 -4.058974049999999778e+00 7.159760362000000100e+00 0.000000000000000000e+00 6.364202209999999527e-01 -4.138429799999999992e-02 1.059975926999999984e+01
8.144669679999999801e+00 0.000000000000000000e+00 0.000000000000000000e+00 -4.125687201999999942e+00 7.277437927000000251e+00 0.000000000000000000e+00 6.468804009999999938e-01 -4.206448899999999658e-02 1.077397653300000080e+01
8.338966124000000590e+00 0.000000000000000000e+00 0.000000000000000000e+00 -4.091507338000000438e+00 7.443042843999999825e+00 0.000000000000000000e+00 4.671263179999999848e-01 -5.520032899999999937e-02 1.091094352400000034e+01
8.284872924000000083e+00 0.000000000000000000e+00 0.000000000000000000e+00 -4.101914719999999903e+00 7.618253844999999913e+00 0.000000000000000000e+00 7.181536059999999999e-01 2.525813410000000148e-01 1.113043259600000034e+01
8.130617901999999120e+00 0.000000000000000000e+00 0.000000000000000000e+00 -4.040882659000000210e+00 7.327863179000000393e+00 0.000000000000000000e+00 6.226729760000000446e-01 -3.605710400000000093e-01 1.087418503099999967e+01
8.096086772999999681e+00 0.000000000000000000e+00 0.000000000000000000e+00 -3.972338769999999908e+00 7.226258006000000123e+00 0.000000000000000000e+00 4.535208740000000183e-01 -5.359257299999999752e-02 1.059315318400000017e+01
7.905886064999999796e+00 0.000000000000000000e+00 0.000000000000000000e+00 -3.929191888000000077e+00 7.125319636000000401e+00 0.000000000000000000e+00 6.054621749999999913e-01 -3.506047869999999733e-01 1.057362047199999999e+01
8.125938467999999304e+00 0.000000000000000000e+00 0.000000000000000000e+00 -3.986985481000000053e+00 7.252902490000000313e+00 0.000000000000000000e+00 4.551930849999999973e-01 -5.379017800000000099e-02 1.063221200199999927e+01
8.146967573999999601e+00 0.000000000000000000e+00 0.000000000000000000e+00 -3.997303395999999953e+00 7.271672266999999579e+00 0.000000000000000000e+00 4.563710779999999856e-01 -5.392938199999999793e-02 1.065972709000000052e+01
8.227403722000000030e+00 0.000000000000000000e+00 0.000000000000000000e+00 -4.167596179000000234e+00 7.351362576999999732e+00 0.000000000000000000e+00 6.534514500000000448e-01 -4.249178199999999878e-02 1.088341923099999953e+01
8.217843032999999409e+00 0.000000000000000000e+00 0.000000000000000000e+00 -3.895257041999999892e+00 7.213057423999999607e+00 0.000000000000000000e+00 6.008967450000000099e-01 5.728312599999999671e-02 1.046939407800000055e+01
7.658254759000000078e+00 0.000000000000000000e+00 0.000000000000000000e+00 -3.682156495000000085e+00 7.054255409999999671e+00 0.000000000000000000e+00 4.356341490000000261e-01 1.931132299999999968e-01 9.916093497000000312e+00
7.712679365999999703e+00 0.000000000000000000e+00 0.000000000000000000e+00 -3.708324326000000060e+00 7.104387597999999748e+00 0.000000000000000000e+00 4.387300530000000087e-01 1.944856199999999979e-01 9.986563794000000271e+00
8.222068965000000063e+00 0.000000000000000000e+00 0.000000000000000000e+00 -4.070819917999999760e+00 7.560503230000000130e+00 0.000000000000000000e+00 7.127096010000000259e-01 2.506666330000000276e-01 1.104605770699999923e+01
8.202535350999999864e+00 0.000000000000000000e+00 0.000000000000000000e+00 -3.888001201999999878e+00 7.199621393000000147e+00 0.000000000000000000e+00 5.997774329999999710e-01 5.717642299999999705e-02 1.044989234800000055e+01
7.706639357000000246e+00 0.000000000000000000e+00 0.000000000000000000e+00 -3.705420236000000145e+00 7.098823959999999822e+00 0.000000000000000000e+00 4.383864709999999998e-01 1.943333130000000075e-01 9.978743044999999867e+00
8.347523232000000348e+00 0.000000000000000000e+00 0.000000000000000000e+00 -4.148683689000000285e+00 7.523352943999999987e+00 0.000000000000000000e+00 6.392843929999999508e-01 -3.701902080000000206e-01 1.116428213400000047e+01
8.284835503000000045e+00 0.000000000000000000e+00 0.000000000000000000e+00 -4.064948189999999961e+00 7.394727918000000066e+00 0.000000000000000000e+00 4.640940669999999990e-01 -5.484200699999999817e-02 1.084011746100000018e+01
8.201651868000000789e+00 0.000000000000000000e+00 0.000000000000000000e+00 -4.154551563000000058e+00 7.328352739999999699e+00 0.000000000000000000e+00 6.514061410000000496e-01 -4.235878299999999708e-02 1.084935402300000007e+01
8.115427765999999821e+00 0.000000000000000000e+00 0.000000000000000000e+00 -3.981828414000000205e+00 7.243521037999999912e+00 0.000000000000000000e+00 4.546043040000000146e-01 -5.372060199999999924e-02 1.061845949599999983e+01
8.369667406999999670e+00 0.000000000000000000e+00 0.000000000000000000e+00 -4.159689249999999561e+00 7.543310772999999969e+00 0.000000000000000000e+00 6.409802759999999600e-01 -3.711722419999999856e-01 1.119389856099999925e+01
8.227357535999999527e+00 0.000000000000000000e+00 0.000000000000000000e+00 -4.036746669000000232e+00 7.343425277999999778e+00 0.000000000000000000e+00 4.608743060000000114e-01 -5.446152800000000210e-02 1.076491163200000045e+01
7.989199364000000081e+00 0.000000000000000000e+00 0.000000000000000000e+00 -3.970598244000000054e+00 7.200407219999999775e+00 0.000000000000000000e+00 6.118426179999999492e-01 -3.542995079999999852e-01 1.068504671800000061e+01
8.378480062999999589e+00 0.000000000000000000e+00 0.000000000000000000e+00 -4.164069103000000105e+00 7.551253335000000178e+00 0.000000000000000000e+00 6.416551820000000461e-01 -3.715630600000000006e-01 1.120568492800000016e+01
8.218432581000000070e+00 0.000000000000000000e+00 0.000000000000000000e+00 -3.895536487999999853e+00 7.213574888000000129e+00 0.000000000000000000e+00 6.009398540000000510e-01 5.728723599999999833e-02 1.047014515200000062e+01
8.081352550000000079e+00 0.000000000000000000e+00 0.000000000000000000e+00 -4.016397987999999586e+00 7.283461908999999679e+00 0.000000000000000000e+00 6.189000519999999783e-01 -3.583862540000000152e-01 1.080829575199999937e+01
