-1.208509999999999973e+00 3.197929999999999939e+00 1.718590000000000062e+00 4.344199999999999728e-01 7.827000000000000624e-02 1.955240000000000089e+00 2.459970000000000212e+00 4.105590000000000295e+00 2.545170000000000154e+00 4.430719999999999992e+00 2.990300000000000180e-01 2.200279999999999792e+00 3.378390000000000004e+00 6.915999999999999925e-01 8.240349999999999397e+00 8.975899999999999990e-01 4.027870000000000061e+00 8.825770000000000337e+00 7.092179999999999929e+00 6.725999999999999757e-01 8.628769999999999385e+00 5.074069999999999858e+00 4.380259999999999820e+00 8.332649999999999224e+00 -1.196010000000000018e+00 5.002100000000000435e+00 1.053608000000000011e+01 1.085369999999999946e+00 1.844600000000000017e+00 1.012498000000000076e+01 3.505329999999999835e+00 5.371089999999999698e+00 1.059545999999999921e+01 5.138180000000000192e+00 1.486699999999999910e+00 1.055178000000000083e+01 8.436000000000000165e-01 6.443380000000000329e+00 7.430589999999999584e+00 3.147250000000000103e+00 3.012529999999999930e+00 7.436560000000000059e+00 -2.898569999999999869e+00 6.651110000000000078e+00 6.983839999999999826e+00 -9.868799999999999795e-01 2.851869999999999905e+00 7.293700000000000294e+00 4.891829999999999679e+00 4.854870000000000019e+00 3.448700000000000099e+00 6.334889999999999688e+00 1.390349999999999975e+00 3.752489999999999881e+00 2.061499999999999999e-01 4.942580000000000418e+00 3.185379999999999878e+00 2.294760000000000133e+00 1.629450000000000065e+00 3.361069999999999780e+00
-3.849899999999999989e-01 1.651080000000000103e+00 1.791549999999999976e+00 -2.806010000000000115e+00 5.429890000000000327e+00 2.058209999999999873e+00 3.506139999999999812e+00 2.372910000000000075e+00 2.348520000000000163e+00 1.514639999999999986e+00 5.397269999999999790e+00 1.905850000000000044e+00 1.871259999999999923e+00 3.036680000000000046e+00 8.908409999999999940e+00 -3.549999999999999822e-01 6.636989999999999945e+00 8.780620000000000758e+00 6.245840000000000281e+00 3.154230000000000089e+00 8.720720000000000027e+00 3.882629999999999804e+00 6.684009999999999785e+00 8.784739999999999327e+00 -9.425299999999999789e-01 4.394840000000000302e+00 1.264099999999999946e-01 1.303260000000000085e+00 3.945799999999999863e-01 1.055729000000000006e+01 3.701859999999999928e+00 3.790109999999999868e+00 1.733000000000000096e-01 6.455799999999999983e+00 4.858899999999999886e-01 1.058909000000000056e+01 4.095729999999999649e+00 1.873180000000000067e+00 7.774820000000000064e+00 1.721230000000000038e+00 5.386490000000000222e+00 7.612569999999999837e+00 -2.813599999999999990e-01 1.657999999999999918e+00 7.247130000000000294e+00 -2.504640000000000200e+00 5.413330000000000197e+00 7.255049999999999777e+00 5.663700000000000401e+00 3.132219999999999782e+00 3.520669999999999966e+00 3.365600000000000147e+00 6.811720000000000219e+00 3.295599999999999863e+00 1.362119999999999997e+00 3.132070000000000132e+00 3.394559999999999800e+00 -7.506500000000000394e-01 6.832449999999999690e+00 2.774280000000000079e+00
1.792089999999999961e+00 5.102499999999999813e-01 2.070990000000000109e+00 -3.153900000000000037e-01 3.996649999999999814e+00 2.090269999999999850e+00 5.803630000000000067e+00 1.519999999999999997e-02 2.414550000000000196e+00 3.407239999999999824e+00 4.193839999999999790e+00 2.738389999999999880e+00 8.437500000000000000e-01 3.210360000000000102e+00 8.977100000000000080e+00 -1.125660000000000105e+00 6.762620000000000076e+00 8.963440000000000296e+00 5.113800000000000345e+00 3.455709999999999837e+00 8.554790000000000560e+00 3.670040000000000191e+00 7.273209999999999731e+00 7.967360000000000220e+00 8.718090000000000117e+00 3.194999999999999923e-02 1.024775999999999954e+01 -1.642479999999999940e+00 4.035140000000000171e+00 1.036256000000000022e+01 -2.743499999999999828e-01 6.851280000000000037e+00 8.089899999999999869e-01 1.790110000000000090e+00 4.208649999999999558e+00 4.063599999999999990e-01 3.230750000000000011e+00 1.832999999999999963e+00 7.929800000000000182e+00 1.585869999999999891e+00 5.770859999999999879e+00 7.900369999999999671e+00 7.267660000000000231e+00 2.201169999999999849e+00 6.817009999999999792e+00 5.457849999999999646e+00 5.634350000000000414e+00 6.929269999999999818e+00 -6.251499999999999835e-01 1.875729999999999897e+00 3.424450000000000216e+00 -2.852780000000000094e+00 5.471250000000000391e+00 3.122609999999999886e+00 3.694809999999999928e+00 1.547479999999999967e+00 3.284419999999999895e+00 1.402309999999999945e+00 5.586199999999999832e+00 4.025199999999999889e+00
-1.189599999999999991e+00 2.759990000000000165e+00 1.594510000000000094e+00 -2.996989999999999821e+00 7.577890000000000015e+00 1.665340000000000042e+00 2.820160000000000000e+00 3.751510000000000122e+00 2.149979999999999780e+00 5.856700000000000239e-01 6.809779999999999944e+00 1.628470000000000084e+00 4.959950000000000081e+00 1.706029999999999935e+00 9.323669999999999902e+00 2.623000000000000220e+00 5.351670000000000371e+00 8.865970000000000795e+00 1.345300000000000107e-01 1.583820000000000006e+00 9.143760000000000332e+00 -1.491460000000000008e+00 5.577009999999999579e+00 9.046680000000000277e+00 3.197239999999999860e+00 6.522770000000000401e+00 1.106306000000000012e+01 4.233819999999999695e+00 1.795020000000000060e+00 7.409999999999999920e-01 -2.137410000000000032e+00 5.366069999999999673e+00 6.785299999999999665e-01 1.413200000000000012e+00 2.429429999999999978e+00 1.112335999999999991e+01 6.779880000000000351e+00 4.172399999999999998e-01 7.772920000000000051e+00 4.986939999999999706e+00 3.888869999999999827e+00 7.823389999999999844e+00 2.775170000000000137e+00 8.166299999999999670e-01 8.215980000000000061e+00 6.370400000000000507e-01 4.208940000000000126e+00 7.750119999999999898e+00 5.341370000000000395e+00 3.991719999999999935e+00 3.168460000000000054e+00 7.419909999999999783e+00 4.002899999999999792e-01 3.143209999999999837e+00 7.041199999999999681e-01 4.514520000000000088e+00 3.383680000000000021e+00 2.862080000000000179e+00 4.876300000000000079e-01 3.499159999999999826e+00
1.920649999999999968e+00 1.796370000000000022e+00 1.814249999999999918e+00 -3.342899999999999761e-01 5.550530000000000186e+00 2.491200000000000081e+00 6.181119999999999948e+00 2.087990000000000013e+00 2.037589999999999790e+00 3.704410000000000203e+00 5.624310000000000365e+00 2.366000000000000103e+00 5.120500000000000052e-01 1.646609999999999907e+00 8.697060000000000457e+00 -7.738800000000000123e-01 5.449430000000000440e+00 8.725400000000000489e+00 4.701769999999999783e+00 1.949440000000000062e+00 8.744329999999999714e+00 3.088999999999999968e+00 5.277000000000000135e+00 9.050449999999999662e+00 4.879629999999999690e+00 6.550970000000000404e+00 1.081591000000000058e+01 6.548140000000000072e+00 2.279490000000000016e+00 1.051041000000000025e+01 7.588999999999999913e-02 5.459550000000000125e+00 6.579999999999999911e-03 2.330919999999999881e+00 2.889060000000000183e+00 1.066840999999999973e+01 2.842459999999999987e+00 6.026700000000000390e-01 7.774409999999999599e+00 1.062740000000000018e+00 4.183869999999999756e+00 7.311759999999999593e+00 6.724879999999999747e+00 4.154900000000000260e-01 7.469249999999999723e+00 4.953509999999999636e+00 4.524000000000000021e+00 7.676580000000000403e+00 2.798000000000000140e-02 2.963039999999999896e+00 3.297620000000000218e+00 -2.411059999999999981e+00 6.908210000000000406e+00 3.467369999999999841e+00 3.903589999999999893e+00 3.149700000000000166e+00 3.139590000000000103e+00 1.745870000000000033e+00 7.152300000000000324e+00 3.347300000000000164e+00
7.143150000000000333e+00 1.050929999999999920e+00 9.472199999999999509e-01 -1.316840000000000011e+00 4.798619999999999663e+00 1.528370000000000006e+00 3.774030000000000218e+00 9.014299999999999535e-01 2.485110000000000152e+00 2.810470000000000024e+00 4.295670000000000321e+00 3.169820000000000082e+00 2.938989999999999991e+00 3.192540000000000155e+00 8.530960000000000321e+00 1.479530000000000012e+00 6.834850000000000314e+00 8.690250000000000696e+00 -9.027399999999999869e-01 2.608989999999999920e+00 8.569399999999999906e+00 -2.995730000000000004e+00 6.207910000000000039e+00 8.441929999999999268e+00 3.247440000000000104e+00 5.969350000000000378e+00 1.037476000000000020e+01 5.027219999999999800e+00 2.828819999999999890e+00 1.056286000000000058e+01 -5.781699999999999617e-01 6.855030000000000179e+00 1.056736000000000075e+01 4.812100000000000266e-01 2.846589999999999954e+00 9.812999999999999501e-02 4.703170000000000073e+00 2.058380000000000098e+00 7.169800000000000395e+00 2.735650000000000137e+00 5.303989999999999760e+00 6.953960000000000363e+00 1.229759999999999964e+00 1.499560000000000004e+00 7.263700000000000045e+00 -8.331600000000000117e-01 5.086619999999999919e+00 7.572530000000000427e+00 6.059910000000000352e+00 2.623730000000000118e+00 3.114259999999999806e+00 4.318010000000000126e+00 6.458879999999999733e+00 3.091009999999999813e+00 1.554999999999999938e+00 1.938330000000000108e+00 3.537380000000000191e+00 9.095999999999999919e-02 5.504369999999999763e+00 3.847290000000000099e+00
7.185999999999999333e-02 9.616200000000000303e-01 4.426029999999999909e+00 -2.101690000000000058e+00 4.300620000000000331e+00 2.147699999999999942e+00 3.551959999999999784e+00 6.136399999999999633e-01 2.357880000000000198e+00 4.560999999999999777e-02 7.333399999999999919e-01 1.501239999999999908e+00 2.057069999999999954e+00 2.130310000000000148e+00 7.998479999999999812e+00 2.453500000000000125e-01 5.541629999999999612e+00 8.080759999999999721e+00 6.482470000000000176e+00 2.028319999999999901e+00 8.822369999999999379e+00 4.270080000000000098e+00 4.944429999999999659e+00 8.422330000000000538e+00 2.272209999999999841e+00 4.395000000000000295e-02 1.217700000000000032e-01 4.727669999999999817e+00 3.255310000000000148e+00 1.037113000000000085e+01 7.237070000000000114e+00 -1.398300000000000098e-01 1.009502999999999950e+01 7.322300000000000475e-01 3.107779999999999987e+00 9.978730000000000544e+00 4.299999999999999822e+00 9.033600000000000518e-01 7.343569999999999709e+00 2.354080000000000172e+00 4.720609999999999751e+00 6.753040000000000376e+00 1.805499999999999883e-01 5.221500000000000030e-01 7.104070000000000107e+00 -1.565409999999999968e+00 4.111060000000000159e+00 6.866080000000000183e+00 5.814280000000000115e+00 1.811500000000000110e+00 2.992300000000000182e+00 3.797480000000000189e+00 5.571609999999999729e+00 3.158199999999999896e+00 1.899080000000000101e+00 2.371129999999999960e+00 3.546069999999999833e+00 -1.956199999999999883e-01 5.524619999999999642e+00 3.549970000000000070e+00
7.214100000000000179e+00 1.044079999999999897e+00 1.070969999999999978e+00 -1.296750000000000069e+00 4.862040000000000362e+00 1.518990000000000062e+00 3.797689999999999788e+00 8.766199999999999548e-01 2.515660000000000007e+00 2.813130000000000130e+00 4.372220000000000439e+00 3.162830000000000030e+00 2.925739999999999785e+00 3.230059999999999931e+00 8.503659999999999997e+00 1.510860000000000092e+00 6.796190000000000175e+00 8.745779999999999887e+00 -8.486200000000000410e-01 2.621719999999999828e+00 8.578060000000000684e+00 -3.012989999999999835e+00 6.249760000000000204e+00 8.517739999999999867e+00 3.288920000000000066e+00 6.037399999999999878e+00 1.043268999999999913e+01 4.553639999999999688e+00 2.910299999999999887e+00 2.720000000000000195e-03 -5.994599999999999929e-01 6.793730000000000047e+00 1.060359000000000052e+01 3.011599999999999833e-01 2.829019999999999868e+00 1.027999999999999921e-02 4.749950000000000117e+00 2.078860000000000152e+00 7.290070000000000050e+00 2.618030000000000079e+00 5.317639999999999922e+00 6.974090000000000344e+00 1.279600000000000071e+00 1.492590000000000083e+00 7.152110000000000412e+00 -8.564199999999999591e-01 5.299959999999999560e+00 7.606740000000000279e+00 6.121470000000000411e+00 2.558520000000000127e+00 3.131540000000000212e+00 4.457049999999999734e+00 6.381639999999999979e+00 3.097910000000000164e+00 1.574149999999999938e+00 2.011489999999999778e+00 3.474899999999999878e+00 1.597000000000000156e-02 5.422119999999999607e+00 3.880380000000000162e+00
7.259929999999999772e+00 1.004019999999999913e+00 1.281230000000000091e+00 -1.296019999999999950e+00 4.884730000000000238e+00 1.548799999999999955e+00 3.821299999999999919e+00 8.502199999999999758e-01 2.550800000000000178e+00 2.790909999999999780e+00 4.448479999999999990e+00 3.159110000000000085e+00 2.894499999999999851e+00 3.243090000000000028e+00 8.504400000000000404e+00 1.470159999999999911e+00 6.775280000000000413e+00 8.778059999999999974e+00 -8.241100000000000092e-01 2.662970000000000059e+00 8.544900000000000162e+00 -3.024249999999999883e+00 6.306600000000000428e+00 8.562189999999999301e+00 3.339809999999999945e+00 6.085779999999999745e+00 1.051295000000000002e+01 4.524670000000000414e+00 2.950460000000000083e+00 2.372000000000000150e-02 -6.127899999999999459e-01 6.768559999999999910e+00 1.064354999999999940e+01 6.490599999999999703e-01 2.844240000000000101e+00 1.054855000000000054e+01 4.893270000000000231e+00 2.019569999999999865e+00 7.364510000000000112e+00 2.534839999999999982e+00 5.328400000000000247e+00 6.971140000000000114e+00 1.281379999999999963e+00 1.465049999999999963e+00 7.062350000000000350e+00 -8.649599999999999511e-01 5.467609999999999637e+00 7.607639999999999958e+00 6.153089999999999726e+00 2.449479999999999880e+00 3.120210000000000150e+00 4.577510000000000190e+00 6.284069999999999823e+00 3.080579999999999874e+00 1.650989999999999958e+00 2.106469999999999843e+00 3.395070000000000032e+00 -3.043999999999999831e-02 5.371360000000000134e+00 3.852269999999999861e+00
6.423100000000000476e-01 1.042419999999999902e+00 2.143740000000000201e+00 -7.201999999999999513e-01 5.426470000000000127e+00 1.926649999999999974e+00 5.726950000000000429e+00 1.831350000000000033e+00 2.773330000000000073e+00 3.683250000000000135e+00 4.943419999999999703e+00 1.847750000000000004e+00 9.823600000000000110e-01 2.355469999999999953e+00 8.938010000000000232e+00 -5.131799999999999695e-01 5.896659999999999791e+00 8.801800000000000068e+00 5.275280000000000413e+00 2.195990000000000109e+00 8.894679999999999254e+00 3.602310000000000123e+00 5.859960000000000058e+00 8.596310000000000784e+00 8.253600000000000492e+00 -3.041999999999999912e-02 1.074491000000000085e+01 -8.446799999999999864e-01 3.900760000000000005e+00 1.065310999999999986e+01 4.540169999999999817e+00 1.584599999999999898e-01 1.074630999999999936e+01 3.370080000000000187e+00 3.927340000000000053e+00 1.037740999999999936e+01 2.898229999999999862e+00 8.921000000000000041e-01 7.833429999999999893e+00 1.310089999999999977e+00 4.765220000000000233e+00 7.395310000000000272e+00 6.987960000000000171e+00 8.645199999999999552e-01 7.383980000000000210e+00 5.634509999999999685e+00 4.540790000000000326e+00 7.460479999999999556e+00 -6.267300000000000093e-01 2.663930000000000131e+00 3.748349999999999849e+00 -2.666129999999999889e+00 6.259369999999999656e+00 3.395939999999999959e+00 3.546660000000000146e+00 2.641350000000000087e+00 3.542100000000000026e+00 1.522370000000000001e+00 5.877489999999999881e+00 3.192229999999999901e+00
1.341360000000000108e+00 5.057399999999999674e-01 2.480269999999999975e+00 -1.048950000000000049e+00 3.964230000000000143e+00 2.140489999999999782e+00 5.362709999999999866e+00 3.413900000000000268e-01 2.304269999999999818e+00 2.697459999999999969e+00 4.456479999999999997e+00 1.027050000000000018e+00 2.285229999999999873e+00 3.387770000000000170e+00 8.077980000000000160e+00 2.389100000000000112e-01 6.878680000000000128e+00 8.570510000000000517e+00 6.446299999999999919e+00 3.248400000000000176e+00 8.077139999999999986e+00 4.348939999999999806e+00 7.066200000000000259e+00 8.436149999999999594e+00 3.118900000000000006e+00 6.981359999999999566e+00 4.494400000000000062e-01 5.265640000000000320e+00 3.123889999999999834e+00 2.236799999999999899e-01 3.133340000000000014e+00 4.974100000000000188e-01 4.262900000000000023e-01 1.021770000000000067e+00 2.706160000000000121e+00 1.846000000000000071e-02 4.124100000000000321e+00 1.841939999999999911e+00 7.144549999999999734e+00 2.169719999999999871e+00 5.883980000000000210e+00 7.084170000000000300e+00 -2.340000000000000066e-02 1.868559999999999999e+00 6.768749999999999822e+00 -1.767709999999999892e+00 5.840849999999999653e+00 7.433720000000000105e+00 7.088029999999999831e+00 1.670679999999999943e+00 3.873170000000000002e+00 5.402359999999999829e+00 5.271379999999999733e+00 3.282010000000000094e+00 3.057030000000000136e+00 2.239980000000000082e+00 3.101230000000000153e+00 1.057620000000000005e+00 4.960169999999999746e+00 3.185579999999999856e+00
7.096119999999999983e+00 1.118379999999999930e+00 1.310419999999999918e+00 -2.376860000000000195e+00 4.825590000000000046e+00 1.384700000000000042e+00 5.481189999999999785e+00 2.362899999999999778e+00 4.404469999999999885e+00 4.125790000000000290e+00 5.925729999999999720e+00 4.783350000000000435e+00 1.689219999999999944e+00 2.758070000000000022e+00 5.157119999999999926e+00 -1.193789999999999907e+00 7.071469999999999700e+00 8.077780000000000626e+00 3.669130000000000003e+00 1.104970000000000008e+00 5.960499999999999687e-01 4.385410000000000252e+00 3.986790000000000056e+00 7.643849999999999589e+00 3.637700000000000156e+00 5.953599999999999781e+00 9.814730000000000842e+00 6.384830000000000005e+00 2.812780000000000058e+00 9.514530000000000598e+00 2.645899999999999919e-01 5.839229999999999698e+00 9.777430000000000732e+00 1.930520000000000014e+00 2.347109999999999808e+00 9.713810000000000500e+00 3.953800000000000203e+00 1.388279999999999959e+00 6.263099999999999667e+00 2.181939999999999991e+00 5.315360000000000085e+00 6.133890000000000065e+00 -1.380200000000000038e-01 1.271900000000000031e+00 5.886540000000000106e+00 -1.342249999999999943e+00 4.797769999999999868e+00 5.820039999999999658e+00 -4.259000000000000008e-01 3.398759999999999781e+00 2.826820000000000110e+00 -2.147279999999999855e+00 6.892809999999999881e+00 2.663790000000000102e+00 3.399620000000000086e+00 3.539769999999999861e+00 3.120039999999999925e+00 4.839209999999999567e+00 2.915400000000000214e-01 2.537189999999999834e+00
7.220229999999999926e+00 1.063509999999999955e+00 1.278529999999999944e+00 -2.477380000000000138e+00 4.891810000000000436e+00 1.337820000000000009e+00 5.512039999999999829e+00 2.507029999999999870e+00 4.445750000000000313e+00 4.204209999999999781e+00 5.911240000000000272e+00 4.786850000000000271e+00 1.790569999999999995e+00 2.870019999999999794e+00 5.166649999999999743e+00 -1.243379999999999930e+00 7.261440000000000339e+00 8.155200000000000671e+00 3.550650000000000084e+00 1.092389999999999972e+00 5.853399999999999714e-01 4.319189999999999863e+00 4.041599999999999859e+00 7.682830000000000048e+00 3.211580000000000101e+00 5.762410000000000032e+00 2.213000000000000037e-02 6.400579999999999714e+00 2.742570000000000174e+00 9.518890000000000740e+00 2.071300000000000086e-01 5.831979999999999720e+00 9.861869999999999692e+00 2.061420000000000030e+00 2.428020000000000067e+00 9.750270000000000437e+00 4.004959999999999631e+00 1.386500000000000066e+00 6.272420000000000329e+00 2.324329999999999785e+00 5.277020000000000266e+00 6.162759999999999572e+00 -9.325999999999999568e-02 1.193400000000000016e+00 5.929260000000000197e+00 -1.356849999999999890e+00 4.921750000000000291e+00 5.808790000000000120e+00 -4.062000000000000055e-01 3.336949999999999861e+00 2.916220000000000034e+00 -2.099060000000000148e+00 6.862989999999999924e+00 2.698430000000000106e+00 3.405679999999999819e+00 3.533630000000000049e+00 3.296720000000000095e+00 4.836389999999999745e+00 2.845300000000000051e-01 2.600690000000000168e+00
-1.128440000000000110e+00 2.717410000000000103e+00 1.553670000000000107e+00 -2.999089999999999812e+00 7.529110000000000191e+00 1.540620000000000100e+00 2.886709999999999887e+00 3.531229999999999869e+00 2.246220000000000105e+00 6.177599999999999758e-01 6.875770000000000159e+00 1.609979999999999967e+00 4.788879999999999804e+00 1.703580000000000094e+00 9.332090000000000884e+00 2.641950000000000021e+00 5.226679999999999993e+00 8.778620000000000090e+00 1.252099999999999880e-01 1.635520000000000085e+00 9.122970000000000468e+00 -1.621459999999999901e+00 5.634129999999999860e+00 9.006940000000000168e+00 3.275650000000000173e+00 6.568660000000000387e+00 1.097658000000000023e+01 4.201859999999999928e+00 1.841529999999999889e+00 7.147700000000000164e-01 -2.125890000000000057e+00 5.251999999999999780e+00 6.790399999999999769e-01 1.542550000000000088e+00 2.318620000000000125e+00 1.098147999999999946e+01 6.605459999999999887e+00 4.254499999999999948e-01 7.611500000000000377e+00 4.977940000000000254e+00 3.914169999999999927e+00 7.719149999999999956e+00 2.612029999999999852e+00 6.670099999999999918e-01 8.115030000000000854e+00 6.280400000000000427e-01 4.242099999999999760e+00 7.813799999999999635e+00 5.321279999999999788e+00 3.985440000000000094e+00 3.133169999999999789e+00 7.417620000000000324e+00 3.470199999999999951e-01 3.127959999999999852e+00 7.257500000000000062e-01 4.461450000000000138e+00 3.259320000000000217e+00 2.875680000000000014e+00 5.488800000000000345e-01 3.564880000000000049e+00
1.262769999999999948e+00 4.857500000000000151e-01 2.310649999999999871e+00 -1.121569999999999956e+00 3.887669999999999959e+00 2.177599999999999980e+00 5.339669999999999916e+00 3.149899999999999922e-01 2.301289999999999836e+00 2.713000000000000078e+00 4.397459999999999702e+00 1.062319999999999931e+00 2.349520000000000053e+00 3.395000000000000018e+00 8.041900000000000048e+00 3.179799999999999849e-01 6.862099999999999866e+00 8.604480000000000572e+00 6.368699999999999584e+00 3.318830000000000169e+00 8.111110000000000042e+00 4.314849999999999852e+00 7.001870000000000260e+00 8.352460000000000662e+00 3.050440000000000040e+00 6.869679999999999787e+00 4.935899999999999732e-01 5.239959999999999951e+00 3.063839999999999897e+00 1.907899999999999874e-01 3.231660000000000199e+00 5.476100000000000412e-01 4.561000000000000054e-01 1.104610000000000092e+00 2.687679999999999847e+00 4.934999999999999803e-02 4.183320000000000149e+00 1.861629999999999896e+00 7.011770000000000280e+00 2.330979999999999830e+00 5.790210000000000079e+00 7.117869999999999919e+00 1.174000000000000044e-02 1.919040000000000079e+00 6.753529999999999589e+00 -1.798359999999999959e+00 5.918859999999999566e+00 7.260119999999999685e+00 7.052100000000000257e+00 1.700599999999999890e+00 3.859449999999999825e+00 5.262229999999999741e+00 5.324180000000000135e+00 3.289169999999999927e+00 2.905949999999999811e+00 2.299939999999999873e+00 3.214719999999999800e+00 1.136179999999999968e+00 5.011669999999999625e+00 3.324260000000000215e+00
-1.391100000000000114e-01 1.118190000000000017e+00 1.302359999999999962e+00 -1.916690000000000005e+00 4.786699999999999733e+00 7.781299999999999883e-01 5.450969999999999871e+00 2.444869999999999877e+00 4.570350000000000357e+00 3.787539999999999907e+00 6.201760000000000161e+00 4.850760000000000183e+00 1.642879999999999896e+00 2.479929999999999968e+00 4.855959999999999610e+00 -1.667920000000000069e+00 7.134439999999999671e+00 7.947040000000000326e+00 3.558609999999999829e+00 1.453619999999999912e+00 1.002010000000000067e+00 4.306329999999999991e+00 3.835989999999999789e+00 7.781880000000000130e+00 3.744089999999999918e+00 5.797950000000000159e+00 9.951739999999999142e+00 6.036369999999999791e+00 2.537790000000000212e+00 9.582819999999999894e+00 3.744899999999999896e-01 6.403859999999999886e+00 9.958259999999999224e+00 2.087099999999999955e+00 2.307830000000000048e+00 9.319649999999999324e+00 3.709919999999999884e+00 1.667960000000000109e+00 6.376900000000000013e+00 2.111509999999999998e+00 4.603869999999999685e+00 6.318640000000000256e+00 6.983530000000000015e+00 1.339539999999999953e+00 6.077869999999999884e+00 -1.457209999999999894e+00 5.033839999999999648e+00 6.208260000000000112e+00 -6.530000000000000214e-03 3.605230000000000157e+00 2.580880000000000063e+00 -1.812340000000000062e+00 6.960200000000000387e+00 2.983449999999999935e+00 3.548509999999999831e+00 3.366699999999999804e+00 2.908689999999999998e+00 5.492180000000000284e+00 3.303800000000000070e-01 2.970829999999999860e+00
8.128270000000000550e+00 6.710300000000000153e-01 4.985769999999999591e+00 -2.811789999999999790e+00 5.817899999999999849e+00 1.414919999999999956e+00 1.327069999999999972e+00 7.320359999999999978e+00 1.959680000000000089e+00 1.555100000000000093e-01 3.470460000000000100e+00 2.715669999999999806e+00 2.793610000000000149e+00 2.728450000000000042e+00 6.654349999999999987e+00 5.425699999999999967e-01 4.432080000000000020e+00 9.470980000000000842e+00 5.980150000000000077e+00 1.540129999999999999e+00 8.978979999999999961e+00 4.799240000000000173e+00 5.458339999999999748e+00 9.311299999999999244e+00 -1.326570000000000027e+00 6.804929999999999701e+00 1.065046000000000070e+01 5.141849999999999810e+00 3.341159999999999908e+00 1.104505999999999943e+01 2.679819999999999869e+00 6.542690000000000339e+00 1.054756000000000071e+01 -6.237000000000000183e-02 2.836770000000000014e+00 2.064400000000000124e-01 4.380880000000000329e+00 9.326999999999999735e-01 6.744329999999999714e+00 2.425720000000000098e+00 5.002360000000000362e+00 7.642210000000000392e+00 -2.631000000000000005e-02 1.292159999999999975e+00 7.575020000000000309e+00 -1.338019999999999987e+00 3.831220000000000070e+00 7.634260000000000268e+00 5.910289999999999822e+00 1.450709999999999944e+00 4.007719999999999949e+00 3.884590000000000209e+00 6.260189999999999699e+00 3.324720000000000120e+00 2.141300000000000203e+00 2.025520000000000209e+00 4.277599999999999625e+00 -6.481099999999999639e-01 6.162519999999999776e+00 3.271580000000000155e+00
-3.361500000000000044e-01 1.289420000000000011e+00 1.046000000000000041e+00 6.135460000000000136e+00 3.857829999999999870e+00 3.766640000000000210e+00 4.578680000000000305e+00 3.828099999999999836e-01 2.053780000000000161e+00 2.595359999999999889e+00 4.232490000000000308e+00 2.875710000000000210e+00 3.911700000000000177e+00 3.044690000000000119e+00 9.644310000000000827e+00 7.857199999999999740e-01 6.931400000000000006e+00 8.815260000000000318e+00 -8.748500000000000165e-01 2.511270000000000113e+00 8.001189999999999358e+00 -3.263700000000000045e+00 7.024160000000000181e+00 6.945599999999999774e+00 2.004000000000000004e+00 7.001079999999999970e+00 9.085000000000000020e-02 4.481770000000000032e+00 4.361460000000000115e+00 8.079800000000000315e-01 3.227780000000000094e+00 6.290400000000000436e-01 1.041445000000000043e+01 5.192200000000000149e-01 3.320840000000000014e+00 1.018125000000000036e+01 4.956970000000000098e+00 2.359290000000000109e+00 7.147610000000000241e+00 3.282109999999999861e+00 5.508980000000000210e+00 8.685100000000000264e+00 9.241599999999999815e-01 2.055079999999999796e+00 6.231670000000000265e+00 -1.187459999999999960e+00 5.552870000000000417e+00 7.365350000000000286e+00 6.720229999999999926e+00 1.200320000000000054e+00 3.430969999999999853e+00 4.323299999999999699e+00 5.681869999999999976e+00 4.173610000000000042e+00 2.485930000000000195e+00 1.652649999999999952e+00 3.305200000000000138e+00 1.175100000000000033e-01 5.362499999999999822e+00 3.501809999999999867e+00
6.220999999999999863e-01 1.073839999999999906e+00 2.113960000000000061e+00 -7.189400000000000235e-01 5.403299999999999770e+00 1.908190000000000053e+00 5.679490000000000371e+00 1.801949999999999941e+00 2.822229999999999794e+00 3.565490000000000048e+00 4.920770000000000088e+00 1.731279999999999930e+00 9.728999999999999870e-01 2.319809999999999928e+00 8.944649999999999324e+00 -4.310599999999999987e-01 5.848659999999999748e+00 8.804719999999999658e+00 5.311589999999999812e+00 2.152109999999999967e+00 8.883720000000000283e+00 3.583159999999999901e+00 5.937369999999999592e+00 8.620689999999999742e+00 8.265180000000000859e+00 -5.999999999999999474e-04 1.078678000000000026e+01 -7.814999999999999725e-01 3.873050000000000104e+00 1.067947999999999986e+01 4.524289999999999701e+00 1.120499999999999968e-01 1.075277999999999956e+01 3.275720000000000187e+00 3.949580000000000091e+00 1.017178000000000004e+01 2.915680000000000049e+00 7.953400000000000469e-01 7.743990000000000151e+00 1.414649999999999963e+00 4.650850000000000151e+00 7.335130000000000372e+00 6.996839999999999726e+00 8.973400000000000265e-01 7.468479999999999563e+00 5.485350000000000392e+00 4.603699999999999903e+00 7.426639999999999908e+00 -6.107000000000000206e-01 2.672950000000000159e+00 3.719190000000000218e+00 -2.707030000000000047e+00 6.331129999999999924e+00 3.411389999999999922e+00 3.552249999999999908e+00 2.631990000000000052e+00 3.500059999999999949e+00 1.541309999999999958e+00 5.831540000000000390e+00 3.142360000000000042e+00