-6.898510063000000514e+01
-6.916077088000000117e+01
-6.787592791999999520e+01
-6.790702880999999991e+01
-6.952092718000000104e+01
-6.729293250999999998e+01
-6.903487388000000635e+01
-6.678706218000000661e+01
-6.745658923999999956e+01
-6.765019024000000059e+01
-6.885653141000000232e+01
-6.810291148000000305e+01
-6.773032372000000123e+01
-6.775331812000000298e+01
-6.904034837999999752e+01
-6.837967030000000079e+01
-6.711547824999999534e+01
-6.731533813000000066e+01
-6.754526067000000467e+01
-6.881382406999999546e+01
-6.619084444000000644e+01
-6.738206003999999893e+01
-6.992401019000000417e+01
-6.690701190000000054e+01
-6.892247023999999556e+01
-6.919779861000000665e+01
