1.476199999999999957e+00 1.796519999999999895e+00 1.116089999999999982e+01 -5.384600000000000497e-01 5.270059999999999967e+00 1.105139999999999922e+01 4.949139999999999873e+00 2.068290000000000184e+00 1.084490000000000087e+01 3.228950000000000209e+00 5.414690000000000225e+00 1.140119999999999933e+01 3.500000000000000000e+00 1.521099999999999952e-01 1.490509999999999913e+01 6.370299999999999851e-01 3.734059999999999935e+00 1.707499999999999929e+01 7.373639999999999972e+00 6.464600000000000346e-01 1.718370000000000175e+01 5.014879999999999782e+00 4.294859999999999900e+00 1.536299999999999955e+01 7.172010000000000218e+00 7.844100000000000517e-01 1.021209999999999951e+01 5.161150000000000126e+00 4.337900000000000311e+00 9.750199999999999534e+00 3.382740000000000080e+00 3.468499999999999917e-01 9.656829999999999359e+00 1.418509999999999938e+00 4.157829999999999693e+00 9.897069999999999368e+00 9.095100000000000406e-01 1.776000000000000023e+00 1.540440000000000076e+01 -3.144309999999999938e+00 6.062780000000000058e+00 1.332140000000000057e+01 3.383220000000000116e+00 2.484179999999999833e+00 1.288659999999999961e+01 8.588799999999999768e-01 5.630410000000000359e+00 1.340479999999999983e+01 1.403000000000000080e-02 2.111720000000000041e+00 1.902499999999999858e+01 -1.328729999999999967e+00 5.431510000000000282e+00 1.688800000000000168e+01 4.899779999999999802e+00 1.761470000000000091e+00 1.656729999999999947e+01 3.047190000000000065e+00 5.152180000000000426e+00 1.667460000000000164e+01
1.213009999999999922e+00 2.318700000000000205e+00 1.092060000000000031e+01 -9.963100000000000289e-01 6.041780000000000150e+00 1.115910000000000046e+01 5.098900000000000432e+00 1.719929999999999959e+00 1.149879999999999924e+01 3.211259999999999781e+00 5.556269999999999598e+00 1.122010000000000041e+01 -4.314899999999999847e-01 7.365680000000000227e+00 1.491530000000000022e+01 2.806699999999999751e-01 4.312070000000000292e+00 1.723999999999999844e+01 7.240029999999999966e+00 8.625800000000000134e-01 1.733429999999999893e+01 4.305769999999999875e+00 4.422399999999999665e+00 1.466910000000000025e+01 7.120739999999999625e+00 5.264100000000000446e-01 1.029889999999999972e+01 5.474510000000000431e+00 3.930569999999999897e+00 1.022150000000000070e+01 3.264429999999999943e+00 6.640000000000000346e-01 9.790729999999999933e+00 9.191799999999999971e-01 4.798969999999999736e+00 9.649969999999999715e+00 8.032000000000000250e-01 2.206249999999999822e+00 1.566990000000000016e+01 -2.844100000000000072e+00 6.534320000000000128e+00 1.312620000000000076e+01 3.062289999999999957e+00 2.394000000000000128e+00 1.316649999999999920e+01 8.789900000000000491e-01 5.922320000000000029e+00 1.313760000000000083e+01 6.771000000000000629e-02 2.270799999999999930e+00 1.916750000000000043e+01 -1.932749999999999968e+00 5.554630000000000400e+00 1.644010000000000105e+01 4.888060000000000294e+00 1.994329999999999936e+00 1.624050000000000082e+01 2.496519999999999850e+00 5.777009999999999756e+00 1.681919999999999860e+01
