-6.994457848000000411e+01
-6.784836968999999840e+01
