3.707999999999999925e-03 -4.706569999999999920e-01 -3.057610000000000050e-01 -9.533479999999999732e-01 6.440500000000000391e-02 1.378322000000000047e+00 2.700409999999999755e-01 -5.225450000000000372e-01 2.542849999999999833e-01 6.511599999999999333e-02 -3.128800000000000331e-02 4.952389999999999848e-01 -1.801149999999999973e-01 7.688760000000000039e-01 4.094499999999999806e-01 6.386560000000000015e-01 -1.443309999999999871e-01 4.476200000000000317e-02 -3.271189999999999931e-01 -2.514489999999999781e-01 -9.832980000000000054e-01 1.833329999999999960e-01 -9.555770000000000097e-01 -6.206099999999999950e-01 6.782500000000000195e-01 2.587579999999999880e-01 2.317800000000000138e-01 6.906560000000000477e-01 5.781119999999999592e-01 -9.124699999999999478e-02 -7.610919999999999908e-01 8.702680000000000415e-01 -6.522729999999999917e-01 4.638599999999999945e-01 -6.129989999999999606e-01 -6.620960000000000178e-01 2.457080000000000097e-01 -2.889439999999999786e-01 -9.766399999999999526e-01 3.392479999999999940e-01 -3.212389999999999968e-01 9.373299999999999688e-02 -2.131419999999999981e-01 -1.194059999999999983e-01 4.748290000000000011e-01 -2.441250000000000087e-01 -4.655389999999999806e-01 -9.544369999999999798e-01 2.321259999999999990e-01 6.290679999999999605e-01 1.201551999999999953e+00 4.775280000000000080e-01 6.915750000000000508e-01 1.816200000000000037e-01 -9.064999999999999447e-02 1.977440000000000031e-01 -5.296499999999999542e-01 -1.518639000000000072e+00 1.251700000000000035e-01 1.010439000000000087e+00
1.703949999999999909e-01 -2.990670000000000273e-01 -4.193390000000000173e-01 9.875299999999999356e-02 -1.065101999999999993e+00 7.359949999999999548e-01 -4.152270000000000127e-01 -2.428929999999999978e-01 -1.902600000000000124e-02 -1.578200000000000089e-02 -7.056199999999999972e-02 2.347399999999999834e-02 -1.333920000000000106e-01 1.163750000000000062e-01 5.871939999999999937e-01 2.198599999999999860e-02 -1.040443999999999924e+00 -7.237399999999999389e-02 -4.107089999999999907e-01 -1.790799999999999892e-01 -1.166420999999999930e+00 1.770670000000000022e-01 -7.088400000000000256e-02 6.323800000000000532e-01 6.600989999999999913e-01 8.569489999999999608e-01 -2.790899999999999978e-02 -5.479650000000000354e-01 1.189078000000000079e+00 -2.461869999999999892e-01 -3.522419999999999995e-01 7.115850000000000231e-01 -4.104929999999999968e-01 9.316640000000000477e-01 -9.139040000000000497e-01 3.936370000000000147e-01 1.032420000000000004e-01 5.986999999999999961e-02 -3.626940000000000164e-01 -7.471700000000000008e-01 -2.741569999999999840e-01 -5.965199999999999669e-02 -1.342999999999999923e-02 8.392600000000000060e-02 -1.466800000000000048e-02 -1.011330000000000007e-01 1.418069999999999886e-01 -2.569690000000000030e-01 1.327500000000000069e-01 1.041779999999999928e+00 7.720719999999999805e-01 6.695950000000000513e-01 5.974639999999999951e-01 3.510750000000000259e-01 -3.531440000000000135e-01 -5.227899999999999769e-01 -3.047750000000000181e-01 1.246420000000000028e-01 -1.199510000000000021e-01 -1.353209999999999968e-01
