7.455655256487973837e-02 -5.553424606137666864e-01 -2.564378190448953099e+00 -5.553424606137666864e-01 3.087932918657954051e+00 2.548264560708535242e+00 -2.564378190448953099e+00 2.548264560708535242e+00 2.779803170894095565e+00
-8.270485620924610259e+00 1.673292230200034980e-01 -1.162874176465623410e+00 1.673292230200034980e-01 -1.266558883463335228e+01 -3.684175868102000373e-01 -1.162874176465623410e+00 -3.684175868102000373e-01 5.049507123800051067e-01
