4.139067000081660730e+00 2.105128673185450328e-22 3.052029115605665078e-22 -4.139150569071483154e+00 7.169025999666708060e+00 -4.842480583198989219e-21 -1.395625528624212114e-04 1.715512983152268347e-04 2.920610699937083865e+01
4.139066929081661073e+00 2.324588519052625410e-21 3.052029115605665078e-22 -4.139150528071400714e+00 7.169025862666533300e+00 -4.842480583198989219e-21 -1.398345521743238730e-04 1.713592971256539118e-04 2.920610667437074781e+01
4.139066742081660699e+00 9.222407715782957759e-22 3.052029115605665078e-22 -4.139150424070972001e+00 7.169025464666051839e+00 -4.842480583198989219e-21 -1.403725508776918146e-04 1.710962943503494091e-04 2.920610544937021658e+01
4.139066442081660746e+00 1.167283168054032306e-21 1.999268806069167374e-21 -4.139150244070006757e+00 7.169024778665356479e+00 -4.842480583198989219e-21 -1.410445502414880612e-04 1.709882912461047717e-04 2.920610332836891132e+01
4.139066027081661048e+00 -2.233490587701236902e-21 1.999268806069167374e-21 -4.139149975068312948e+00 7.169023767664510771e+00 -1.161874416123339268e-20 -1.417265514420977188e-04 1.712522889411250879e-04 2.920610026336648701e+01
4.139065492081661191e+00 2.247991329631399257e-21 -1.388862982948034170e-21 -4.139149602065695710e+00 7.169022389663570749e+00 -4.842480583198989219e-21 -1.423005556466502082e-04 1.721002885405696744e-04 2.920609619336261886e+01
4.139064830081660595e+00 2.744850306583174563e-22 1.999268806069167374e-21 -4.139149111061964703e+00 7.169020599662579762e+00 -4.842480583198989219e-21 -1.426455640061190982e-04 1.737472910912477876e-04 2.920609102935695844e+01
4.139064032081661182e+00 1.224995757913236047e-21 1.999268806069167374e-21 -4.139148486056950738e+00 7.169018352661575832e+00 -4.842480583198989219e-21 -1.426405777268361546e-04 1.764102976516863659e-04 2.920608468634917188e+01
4.139063097081661091e+00 1.860444110107279141e-21 3.052029115605665078e-22 -4.139147717050463804e+00 7.169015614660613878e+00 -4.842480583198989219e-21 -1.421655978526586062e-04 1.802893092509125651e-04 2.920607710933895618e+01
4.139062026081661294e+00 -1.461229473869391227e-21 3.052029115605665078e-22 -4.139146802042411366e+00 7.169012370659708644e+00 1.933782994835413493e-21 -1.411146252899444879e-04 1.855473266857312459e-04 2.920606828932609389e+01
4.099435618000000225e+00 0.000000000000000000e+00 0.000000000000000000e+00 -4.017898192999999729e+00 7.023820912999999777e+00 0.000000000000000000e+00 -6.448990629999999946e-01 4.948569030000000146e-01 2.838931817899999999e+01
4.099434890000000387e+00 0.000000000000000000e+00 0.000000000000000000e+00 -4.017897621000000363e+00 7.023819225000000444e+00 0.000000000000000000e+00 -6.449001450000000357e-01 4.948583950000000065e-01 2.838930889499999921e+01
4.099433373000000103e+00 0.000000000000000000e+00 0.000000000000000000e+00 -4.017896454999999811e+00 7.023815782999999868e+00 0.000000000000000000e+00 -6.449022690000000280e-01 4.948611230000000138e-01 2.838928996099999935e+01
4.099431098000000162e+00 0.000000000000000000e+00 0.000000000000000000e+00 -4.017894722000000307e+00 7.023810667000000230e+00 0.000000000000000000e+00 -6.449053799999999725e-01 4.948649869999999784e-01 2.838926158099999952e+01
4.099428085999999638e+00 0.000000000000000000e+00 0.000000000000000000e+00 -4.017892439999999787e+00 7.023803941999999800e+00 0.000000000000000000e+00 -6.449094239999999534e-01 4.948698779999999853e-01 2.838922392799999983e+01
4.099424339999999667e+00 0.000000000000000000e+00 0.000000000000000000e+00 -4.017889614000000442e+00 7.023795640000000340e+00 0.000000000000000000e+00 -6.449143680000000156e-01 4.948757010000000012e-01 2.838917702099999829e+01
4.099419854999999835e+00 0.000000000000000000e+00 0.000000000000000000e+00 -4.017886245999999772e+00 7.023785769999999928e+00 0.000000000000000000e+00 -6.449202000000000545e-01 4.948823840000000085e-01 2.838912075000000002e+01
4.099414616999999872e+00 0.000000000000000000e+00 0.000000000000000000e+00 -4.017882326999999698e+00 7.023774324999999763e+00 0.000000000000000000e+00 -6.449269149999999895e-01 4.948898520000000190e-01 2.838905494899999837e+01
4.099408624999999695e+00 0.000000000000000000e+00 0.000000000000000000e+00 -4.017877863999999910e+00 7.023761327999999970e+00 0.000000000000000000e+00 -6.449344959999999682e-01 4.948980110000000265e-01 2.838897962900000138e+01
4.099401900000000154e+00 0.000000000000000000e+00 0.000000000000000000e+00 -4.017872878000000370e+00 7.023746852000000374e+00 0.000000000000000000e+00 -6.449428950000000160e-01 4.949067320000000159e-01 2.838889514599999941e+01
4.104539374999999879e+00 0.000000000000000000e+00 0.000000000000000000e+00 -4.057167275000000295e+00 7.128253856999999805e+00 0.000000000000000000e+00 -8.915480100000000574e-02 -4.573282670000000105e-01 2.857356074400000168e+01
4.104538808000000039e+00 0.000000000000000000e+00 0.000000000000000000e+00 -4.057166643000000406e+00 7.128253093999999734e+00 0.000000000000000000e+00 -8.915503599999999307e-02 -4.573296550000000016e-01 2.857355452299999854e+01
4.104537640000000209e+00 0.000000000000000000e+00 0.000000000000000000e+00 -4.057165357999999777e+00 7.128251437000000301e+00 0.000000000000000000e+00 -8.915560499999999888e-02 -4.573323559999999954e-01 2.857354194499999878e+01
4.104535893999999630e+00 0.000000000000000000e+00 0.000000000000000000e+00 -4.057163446999999756e+00 7.128248915000000352e+00 0.000000000000000000e+00 -8.915647399999999945e-02 -4.573362300000000102e-01 2.857352332900000036e+01
4.104533585000000429e+00 0.000000000000000000e+00 0.000000000000000000e+00 -4.057160922999999642e+00 7.128245536999999743e+00 0.000000000000000000e+00 -8.915761199999999720e-02 -4.573411450000000045e-01 2.857349890100000067e+01
4.104530715000000107e+00 0.000000000000000000e+00 0.000000000000000000e+00 -4.057157786000000321e+00 7.128241300000000003e+00 0.000000000000000000e+00 -8.915898999999999353e-02 -4.573469929999999795e-01 2.857346877000000163e+01
4.104527279000000028e+00 0.000000000000000000e+00 0.000000000000000000e+00 -4.057154031999999688e+00 7.128236189999999972e+00 0.000000000000000000e+00 -8.916058000000000316e-02 -4.573536770000000140e-01 2.857343298700000034e+01
4.104523273999999944e+00 0.000000000000000000e+00 0.000000000000000000e+00 -4.057149658000000159e+00 7.128230197999999795e+00 0.000000000000000000e+00 -8.916235100000000080e-02 -4.573610880000000267e-01 2.857339163800000037e+01
4.104518714000000124e+00 0.000000000000000000e+00 0.000000000000000000e+00 -4.057144678000000226e+00 7.128223339999999908e+00 0.000000000000000000e+00 -8.916425999999999519e-02 -4.573690950000000033e-01 2.857334497100000092e+01
4.104513631999999745e+00 0.000000000000000000e+00 0.000000000000000000e+00 -4.057139130999999566e+00 7.128215660000000398e+00 0.000000000000000000e+00 -8.916626399999999508e-02 -4.573775290000000049e-01 2.857329344900000123e+01
4.258560752000000171e+00 0.000000000000000000e+00 0.000000000000000000e+00 -4.283001787999999976e+00 7.271502336000000177e+00 0.000000000000000000e+00 -6.044601149999999645e-01 -6.680842649999999550e-01 2.887799838999999835e+01
4.258561134999999886e+00 0.000000000000000000e+00 0.000000000000000000e+00 -4.283002445000000158e+00 7.271502951000000436e+00 0.000000000000000000e+00 -6.044612209999999930e-01 -6.680851899999999954e-01 2.887799787899999870e+01
4.258561807999999616e+00 0.000000000000000000e+00 0.000000000000000000e+00 -4.283003736000000394e+00 7.271504068999999681e+00 0.000000000000000000e+00 -6.044632960000000388e-01 -6.680870410000000481e-01 2.887799667299999840e+01
4.258562752999999645e+00 0.000000000000000000e+00 0.000000000000000000e+00 -4.283005644000000167e+00 7.271505660999999954e+00 0.000000000000000000e+00 -6.044663850000000505e-01 -6.680897510000000095e-01 2.887799489300000033e+01
4.258563951000000181e+00 0.000000000000000000e+00 0.000000000000000000e+00 -4.283008152999999929e+00 7.271507698999999825e+00 0.000000000000000000e+00 -6.044705449999999702e-01 -6.680932649999999917e-01 2.887799263100000147e+01
4.258565389000000145e+00 0.000000000000000000e+00 0.000000000000000000e+00 -4.283011258000000154e+00 7.271510164000000387e+00 0.000000000000000000e+00 -6.044758599999999760e-01 -6.680975479999999855e-01 2.887798996600000123e+01
4.258567053000000158e+00 0.000000000000000000e+00 0.000000000000000000e+00 -4.283014958999999955e+00 7.271513041000000399e+00 0.000000000000000000e+00 -6.044824359999999563e-01 -6.681025729999999774e-01 2.887798695800000104e+01
4.258568930000000030e+00 0.000000000000000000e+00 0.000000000000000000e+00 -4.283019249999999722e+00 7.271516311000000066e+00 0.000000000000000000e+00 -6.044903809999999655e-01 -6.681083129999999537e-01 2.887798366499999858e+01
4.258570995000000359e+00 0.000000000000000000e+00 0.000000000000000000e+00 -4.283024103999999888e+00 7.271519937999999961e+00 0.000000000000000000e+00 -6.044997699999999918e-01 -6.681147170000000246e-01 2.887798016400000023e+01
4.258573210999999858e+00 0.000000000000000000e+00 0.000000000000000000e+00 -4.283029467000000423e+00 7.271523863999999726e+00 0.000000000000000000e+00 -6.045106239999999964e-01 -6.681217040000000384e-01 2.887797651700000046e+01
4.165237347999999784e+00 0.000000000000000000e+00 0.000000000000000000e+00 -4.261493458000000345e+00 7.156067021000000139e+00 0.000000000000000000e+00 2.142882399999999909e-01 9.633400699999999928e-02 2.950821787099999938e+01
4.165237456999999921e+00 0.000000000000000000e+00 0.000000000000000000e+00 -4.261493713000000128e+00 7.156066959000000338e+00 0.000000000000000000e+00 2.142881949999999869e-01 9.633454599999999313e-02 2.950822012400000105e+01
4.165237626999999776e+00 0.000000000000000000e+00 0.000000000000000000e+00 -4.261494134000000322e+00 7.156066706999999916e+00 0.000000000000000000e+00 2.142882979999999882e-01 9.633578900000000500e-02 2.950822416100000112e+01
4.165237860999999597e+00 0.000000000000000000e+00 0.000000000000000000e+00 -4.261494702000000245e+00 7.156066264999999760e+00 0.000000000000000000e+00 2.142886420000000014e-01 9.633783299999999772e-02 2.950822983000000121e+01
4.165238157000000108e+00 0.000000000000000000e+00 0.000000000000000000e+00 -4.261495393999999770e+00 7.156065618999999600e+00 0.000000000000000000e+00 2.142893040000000138e-01 9.634078299999999928e-02 2.950823695500000099e+01
4.165238515999999613e+00 0.000000000000000000e+00 0.000000000000000000e+00 -4.261496196000000403e+00 7.156064759000000386e+00 0.000000000000000000e+00 2.142903620000000120e-01 9.634475800000000256e-02 2.950824539399999935e+01
4.165238938999999974e+00 0.000000000000000000e+00 0.000000000000000000e+00 -4.261497093000000014e+00 7.156063668999999905e+00 0.000000000000000000e+00 2.142918859999999870e-01 9.634989800000000326e-02 2.950825503200000099e+01
4.165239428999999660e+00 0.000000000000000000e+00 0.000000000000000000e+00 -4.261498075000000441e+00 7.156062334999999663e+00 0.000000000000000000e+00 2.142939439999999862e-01 9.635634399999999655e-02 2.950826575099999971e+01
4.165239986999999644e+00 0.000000000000000000e+00 0.000000000000000000e+00 -4.261499127999999637e+00 7.156060753000000219e+00 0.000000000000000000e+00 2.142965910000000085e-01 9.636421900000000096e-02 2.950827740100000085e+01
4.165240607000000317e+00 0.000000000000000000e+00 0.000000000000000000e+00 -4.261500225999999891e+00 7.156058917000000186e+00 0.000000000000000000e+00 2.142998580000000097e-01 9.637359400000000687e-02 2.950828974499999902e+01
