2.069529770315629236e+00 1.194836002980117717e+00 1.366551500039363765e+00 -5.101420199185810488e-05 4.779344002794762680e+00 1.366556000040722196e+00 -2.781930082255934964e-05 4.160449343927602174e-05 7.375479999864086089e+00 -2.069608603852267414e+00 3.584559604278791056e+00 7.375474499836152553e+00 -8.064450756496924374e-05 2.389742478340447729e+00 1.108772299975570874e+01 -2.069651429001025722e+00 5.974250478183784629e+00 1.108771749978122578e+01 2.069441807074156259e+00 1.194932030190652972e+00 1.707967149965882925e+01 -1.289775014488694156e-04 4.779450030063280508e+00 1.707967599965505556e+01 4.138939772874421053e+00 1.348961108239491835e-04 2.078919999944734087e+01 2.069368988322975778e+00 3.584652895954159479e+00 2.078919449944356757e+01 -1.086461006770675429e-04 2.389798552678852328e+00 2.681681299963718601e+01 -2.069689430676282083e+00 5.974316552493495358e+00 2.681681749960925387e+01 2.069503759434432766e+00 1.194853290579061422e+00 3.854471499943816770e+00 -6.702514117179708773e-05 4.779371290451688736e+00 3.854475999940042197e+00 -6.864288980932046168e-05 2.389727927194023938e+00 6.120172999791518187e+00 -2.069639427383270114e+00 5.974235927037360838e+00 6.120167499817036116e+00 -4.139282070276220082e+00 7.169191476673156593e+00 2.918072899940792553e+01 -2.069701285700614513e+00 3.584673476858512231e+00 2.918072449943586122e+01 -6.664356967272040591e-05 2.389729752052391021e+00 1.357082299984471341e+01 -2.069647428121117905e+00 5.974247751837742371e+00 1.357081749981677810e+01 -7.824011546409151776e-05 9.636295942917549396e-05 1.582771999964279885e+01 -2.069649024633084977e+00 3.584604362832057411e+00 1.582772449966831729e+01 2.069379658691442359e+00 1.194950385572029372e+00 9.690671499401647182e+00 -1.911258841628783527e-04 4.779468385444658018e+00 9.690675999397871720e+00 -4.139257799262971105e+00 7.169154174237412747e+00 2.327390899953325132e+01 -2.069677014745348931e+00 3.584646174422768450e+00 2.327390449953189488e+01 2.069431324042594333e+00 1.194966864462972955e+00 2.555771149959258182e+01 -1.394605088510554721e-04 4.779484864306309255e+00 2.555770599958880496e+01 -1.407259800308881942e-04 2.389806825248810274e+00 1.939948299948197885e+01 -2.069721510555635913e+00 5.974324825063455080e+00 1.939948749945404671e+01
2.073599721227015191e+00 1.202506032174623929e+00 1.368461487405066901e+00 3.228983579520252039e-03 4.781314010653181512e+00 1.362746002194335393e+00 -4.136749376435898462e+00 7.165767626970700022e+00 7.378459015398535215e+00 -2.064868657797548579e+00 3.592979637973223728e+00 7.377594486623343606e+00 -1.830638303930771709e-03 2.390172457648456206e+00 1.108412299426806946e+01 -2.061981442048649971e+00 5.979100504379371905e+00 1.108147750410464560e+01 2.070841785324438966e+00 1.196712052164691675e+00 1.708440149782713391e+01 4.591011726731393690e-03 4.780770061211276456e+00 1.708096600719166602e+01 -5.101778646274550758e-03 7.167550857456123303e+00 2.078579899234654604e+01 -2.065080951520330999e+00 3.577588899351004326e+00 2.078121453129023521e+01 -5.638647677151282199e-03 2.389328525828902539e+00 2.681859298765341038e+01 -2.075289458882301652e+00 5.980626509858797846e+00 2.681334746759580057e+01 2.070093731804727444e+00 1.198643300854850935e+00 3.856811490267389342e+00 -1.113697787006491351e-02 4.778681173800732651e+00 3.836565975216167157e+00 1.441320434737115939e-03 2.393827951591967818e+00 6.125512991429567400e+00 -2.076379368501149347e+00 5.966855868447531464e+00 6.113507505150870713e+00 -1.962013298599110580e-03 7.158445473106388235e+00 2.918296902666461889e+01 2.067578730480729376e+00 3.577717495878713017e+00 2.919075451549423406e+01 -6.766572450403455412e-04 2.389379767556048417e+00 1.357732299939604381e+01 -2.070577461593567481e+00 5.979457750399997273e+00 1.357216748230812797e+01 -1.083976421371726437e-02 7.160826304604518633e+00 1.582904899814564992e+01 2.064240967466155929e+00 3.587368323060165398e+00 1.582439447906424235e+01 2.075719675206596726e+00 1.191260428251776027e+00 9.692691525527964203e+00 -4.311133360073275862e-03 4.779078373360476029e+00 9.694705990586168554e+00 7.673735236800601801e-03 7.048212954773614217e-03 2.327160999806162067e+01 2.068923022450611438e+00 3.577620176110190009e+00 2.327540451898448026e+01 2.077181399116154292e+00 1.184506891914727689e+00 2.555174154895654581e+01 2.080469918335091720e-03 4.782674939104031964e+00 2.557884599560760108e+01 -2.850750532446199095e-03 2.391336828546730686e+00 1.940597298845274210e+01 -2.071911484700921680e+00 5.973294788257985211e+00 1.939125749717986480e+01
2.077709671693564353e+00 1.210236061718694911e+00 1.370411474691686671e+00 6.538981374658399057e-03 4.783294018597796793e+00 1.358906004390711741e+00 -4.134309364319954661e+00 7.162427649906535798e+00 7.381459031075813471e+00 -2.060088712149805268e+00 3.601469671899912850e+00 7.379714473301667077e+00 -3.590632183579026398e-03 2.390612436928754914e+00 1.108053298872676251e+01 -2.054241455305774178e+00 5.983990530952206122e+00 1.107522750847934390e+01 2.072231763442905272e+00 1.198502074170478160e+00 1.708916149594202238e+01 9.331000928817112516e-03 4.782090092506052770e+00 1.708226601477617734e+01 -1.004176092652143623e-02 7.165910818855365960e+00 2.078239898521460560e+01 -2.060420890910930947e+00 3.570468902940106659e+00 2.077321456340437322e+01 -1.120864910603673430e-02 2.388828498778687859e+00 2.682038297566065665e+01 -2.080939487332709614e+00 5.986986466877633362e+00 2.680985743531441301e+01 2.070693704034436422e+00 1.202453311218596221e+00 3.859161480556570822e+00 -2.231693031006881656e-02 4.777991056160773020e+00 3.818535950226108255e+00 2.981283405740391308e-03 2.397967976310870331e+00 6.130902983022712860e+00 -2.083159309161366490e+00 5.959425809420923592e+00 6.106777510533858866e+00 -3.731955860724133368e-03 7.147605469408848222e+00 2.918520905414045785e+01 2.065778746803993204e+00 3.570697515002219546e+00 2.920084453170849415e+01 -1.296670912052210866e-03 2.389019783061513191e+00 1.358384299895229397e+01 -2.071517495309510792e+00 5.984717748846549945e+00 1.357349746462818274e+01 -2.159971901368198596e-02 7.152476246111761249e+00 1.583037899660793002e+01 2.059040959461787779e+00 3.590148283068769430e+00 1.582103445835755196e+01 2.082089691870693482e+00 1.187540471135968723e+00 9.694721551814676985e+00 -8.461140885736666978e-03 4.778688361161787412e+00 9.698755981701559392e+00 1.552370042432437910e-02 1.401825167948742359e-02 2.326928999661023312e+01 2.068453059958013984e+00 3.570530177753328704e+00 2.327689453861711044e+01 2.084991474762804664e+00 1.173976919511949601e+00 2.554570159867056134e+01 4.310399816318788956e-03 4.785885014459984710e+00 2.560015599159154931e+01 -5.580775159045325146e-03 2.392866831818281970e+00 1.941249297737497059e+01 -2.074121458539241569e+00 5.972244751103589877e+00 1.938294749491528179e+01
2.081869621633136269e+00 1.218036091699623791e+00 1.372411461894065710e+00 9.888979270420818549e-03 4.785294026510861443e+00 1.354976006624640572e+00 -4.131869351949534419e+00 7.159047672813203533e+00 7.384449046869237421e+00 -2.055268767073303415e+00 3.610049706117576029e+00 7.381854459812479341e+00 -5.360626218959895634e-03 2.391062416269401414e+00 1.107698298313175478e+01 -2.046411468830339420e+00 5.988930558018447314e+00 1.106896751292425130e+01 2.073601741395763920e+00 1.200312096121009420e+00 1.709394149395001250e+01 1.411099007103295069e-02 4.783420124034567067e+00 1.708356602242752942e+01 -1.504174298699785875e-02 7.164240779850298502e+00 2.077897897802483129e+01 -2.055700830037700211e+00 3.563298906908267227e+00 2.076522459580942126e+01 -1.681865041143656286e-02 2.388298471557938285e+00 2.682219296365888539e+01 -2.086639516307692510e+00 5.993436423609033170e+00 2.680636740264782247e+01 2.071303675867471661e+00 1.206323321699643847e+00 3.861531470694164803e+00 -3.363688234518395076e-02 4.777280937357908819e+00 3.800385924955889116e+00 4.561246008721964694e-03 2.402138001496697317e+00 6.136372974624366705e+00 -2.089969249489513903e+00 5.951975749957036044e+00 6.099957515902191041e+00 -5.511898010346047254e-03 7.136685465714979415e+00 2.918746908182572852e+01 2.064099326002673429e+00 3.563431982846040125e+00 4.874548722537237755e-03 -1.926684580339641916e-03 2.388659798510423649e+00 1.359036299848413343e+01 -2.072477529360708726e+00 5.990047747090356367e+00 1.357479744669410238e+01 -3.242967364186413043e-02 7.144096187214770133e+00 1.583170899498821882e+01 2.053830951460639209e+00 3.592948242874913323e+00 1.581762443756787206e+01 2.088529708790060280e+00 1.183780514398113493e+00 9.696741578387692684e+00 -1.264114839346850913e-02 4.778278348907332607e+00 9.702845972802551344e+00 2.346366513676852172e-02 2.107829086992699802e-02 2.326694999511264683e+01 2.067973098047993563e+00 3.563360179194798860e+00 2.327833455845968658e+01 2.092841550856968436e+00 1.163406947080498188e+00 2.553957164859840390e+01 6.540329160999225344e-03 4.789115090345904768e+00 2.562164598751640554e+01 -8.340799801801992291e-03 2.394386835005801295e+00 1.941904296625375537e+01 -2.076371432128516492e+00 5.971184713484626982e+00 1.937455749258258919e+01
2.086059571253498390e+00 1.225866122030770278e+00 1.374471449081032137e+00 1.326897731511264902e-02 4.787314034275833130e+00 1.350936008871872041e+00 -4.129439339348825122e+00 7.155627695662144738e+00 7.387439062754510566e+00 -2.050388822287809276e+00 3.618679740683733659e+00 7.383994446321199057e+00 -7.120620424588971001e-03 2.391512395874448416e+00 1.107350297756060797e+01 -2.038511482743177616e+00 5.993920585608793594e+00 1.106274751739093709e+01 2.074941719298958098e+00 1.202122117958630998e+00 1.709874149188551584e+01 1.889097930313768728e-02 4.784730155594501433e+00 1.708487603013687917e+01 -2.009172478425875000e-02 7.162520740587172696e+00 2.077556897085982968e+01 -2.050950768997306550e+00 3.556078911199087145e+00 2.075728462843284561e+01 -2.244865133729281870e-02 2.387698444253834040e+00 2.682401295181354683e+01 -2.092369545879782411e+00 5.999976380257336039e+00 2.680290736964422749e+01 2.071913647395631664e+00 1.210233332269383011e+00 3.863931460714575827e+00 -4.509683427500862235e-02 4.776560817685127525e+00 3.782215899376126789e+00 6.181208383793012663e-03 2.406318027120273317e+00 6.141912966293067377e+00 -2.096809189659561756e+00 5.944535690055975152e+00 6.093047521167872738e+00 -7.291839791002333558e-03 7.125705461995439194e+00 2.918971910968587480e+01 2.062269343004472510e+00 3.556262002026670643e+00 1.504456530316827627e-02 -2.556698061478210153e-03 2.388279813873146473e+00 1.359685299807426162e+01 -2.073447563616732658e+00 5.995437745101771299e+00 1.357603742855921958e+01 -4.330962813212287793e-02 7.135696128000513561e+00 1.583302899330540470e+01 2.048620943472344358e+00 3.595758202595464414e+00 1.581418441674858855e+01 2.094989725790731061e+00 1.180010557748481181e+00 9.698751605038321344e+00 -1.683115587846251843e-02 4.777868336566802654e+00 9.706925963878790142e+00 3.151362945624654882e-02 2.821833061320964606e-02 2.326457999364647478e+01 2.067483136768836882e+00 3.556110180376460761e+00 2.327970457851214547e+01 2.100721627306812334e+00 1.152816974533584560e+00 2.553334169865731695e+01 8.740258116615993653e-03 4.792345166529744738e+00 2.564329598336818705e+01 -1.111082433994781127e-02 2.395896838079159874e+00 1.942557295513737969e+01 -2.078661405343151802e+00 5.970084675460033630e+00 1.936610749026954181e+01
2.090279520728585361e+00 1.233696152712180361e+00 1.376591436340441899e+00 1.667897567298458339e-02 4.789334041834154121e+00 1.346766011190893231e+00 -4.127039326479239101e+00 7.152177718220341873e+00 7.390389078653861077e+00 -2.045488877783711246e+00 3.627349775425174450e+00 7.386154432760397626e+00 -8.880614863330797693e-03 2.391952375832598232e+00 1.107014297201840236e+01 -2.030571497049194818e+00 5.998940613695969759e+00 1.105661752186537505e+01 2.076231697224908856e+00 1.203932139479866548e+00 1.710353148970018822e+01 2.366096862504726492e-02 4.786020187128223746e+00 1.708619603787996155e+01 -2.518170635223754977e-02 7.160760701095101766e+00 2.077215896371431825e+01 -2.046190708282696225e+00 3.548868915872763541e+00 2.074945466105048197e+01 -2.806865190786110922e-02 2.387028417070168995e+00 2.682585294019706268e+01 -2.098109575841325292e+00 6.006566336968335307e+00 2.679948733646898873e+01 2.072543618807342281e+00 1.214163342955999481e+00 3.866331450724688867e+00 -5.667678634118402531e-02 4.775830697551383786e+00 3.764125873535037581e+00 7.851170622723469342e-03 2.410488053269006503e+00 6.147532958111510126e+00 -2.103629129975983059e+00 5.937145630095638893e+00 6.086077526334409349e+00 -9.061781492743774258e-03 7.114715458308809914e+00 2.919195913759845240e+01 2.060439360300429623e+00 3.549062021061194283e+00 2.516458197131292429e-02 -3.186711408677505089e-03 2.387909829003499684e+00 1.360326299763475433e+01 -2.074437597981027448e+00 6.000887742705907968e+00 1.357717741019924595e+01 -5.418958293876032645e-02 7.127346068817817404e+00 1.583435899147509218e+01 2.043450935622463049e+00 3.598548162521280958e+00 1.581073439608414688e+01 2.101469742911328709e+00 1.176240601070119851e+00 9.700711631737251039e+00 -2.101116330695745535e-02 4.777448324285654024e+00 9.711005955007786739e+00 3.962359353248046806e-02 3.540837064918860022e-02 2.326218999217880068e+01 2.066983176009317358e+00 3.548820181152343878e+00 2.328095459865725303e+01 2.108581703600067137e+00 1.142287001640411415e+00 2.552703174849215273e+01 1.090018703095937437e-02 4.795565242602547684e+00 2.566498597915192548e+01 -1.387084858511035239e-02 2.397376841066848563e+00 1.943205294413268902e+01 -2.080991378405514958e+00 5.968974637088773960e+00 1.935761748788814174e+01
2.094509470324136036e+00 1.241476183657231447e+00 1.378781423770418790e+00 2.009897439230462143e-02 4.791354049011300020e+00 1.342446013533284521e+00 -4.124689313456845419e+00 7.148717740371943741e+00 7.393299094460223486e+00 -2.040578933140693163e+00 3.635999810196176352e+00 7.388304419281582547e+00 -1.061060972370261694e-02 2.392402356405908925e+00 1.106693296651898706e+01 -2.022621511671183647e+00 6.003960642223403532e+00 1.105061752636282790e+01 2.077451675303997103e+00 1.205732160481247428e+00 1.710828148737499177e+01 2.839095817677288539e-02 4.787270218432849944e+00 1.708751604564278637e+01 -3.028168773940831740e-02 7.158960661607046916e+00 2.076876895666063305e+01 -2.041430648179070939e+00 3.541688921076767027e+00 2.074180469357951750e+01 -3.363865198314688193e-02 2.386268390210140478e+00 2.682770292896461584e+01 -2.103819606395437525e+00 6.013216294150254271e+00 2.679616730318931062e+01 2.073173589996270216e+00 1.218123353702212475e+00 3.868751440646872375e+00 -6.834673887234540834e-02 4.775080577599370990e+00 3.746275847534292325e+00 9.551132889749892191e-03 2.414628079768474045e+00 6.153212950089907096e+00 -2.110399070752937423e+00 5.929855570279371157e+00 6.079057531327687336e+00 -1.082172353130701932e-02 7.103795454597109149e+00 2.919416916532897588e+01 2.058619377871182543e+00 3.541852039890450499e+00 3.519459869248393880e-02 -3.816724254784944082e-03 2.387519843667429864e+00 1.360951299725343588e+01 -2.075437632197613347e+00 6.006357739931717177e+00 1.357820739175537561e+01 -6.501953824552451910e-02 7.119086009898340173e+00 1.583567898950076724e+01 2.038350927944717839e+00 3.601308122855952476e+00 1.580728437567625377e+01 2.107919760035835477e+00 1.172490644073334476e+00 9.702621658305087493e+00 -2.515117053408079395e-02 4.777018312062287109e+00 9.715025946261921064e+00 4.778355751516411010e-02 4.261841094965889559e-02 2.325978999077333143e+01 2.066493215783804960e+00 3.541500181551041848e+00 2.328205461891397476e+01 2.116371779272752551e+00 1.131897028111607417e+00 2.552064179774776065e+01 1.298011630492872277e-02 4.798735318127874905e+00 2.568664597488805867e+01 -1.660087235861061952e-02 2.398816843938779808e+00 1.943843293331724453e+01 -2.083351351344736369e+00 5.967834598604963681e+00 1.934914748552099795e+01
2.098749420214075734e+00 1.249176214865983292e+00 1.381041411458822532e+00 2.351897362762988761e-02 4.793364055632142851e+00 1.337936015904079845e+00 -4.122399300209290018e+00 7.145247761971192269e+00 7.396139110149269058e+00 -2.035668988267037349e+00 3.644609844968177637e+00 7.390454405919089531e+00 -1.231060498646441292e-02 2.392842337711776679e+00 1.106391296112089329e+01 -2.014681526705919268e+00 6.008980671192501788e+00 1.104478753083484222e+01 2.078591653560275088e+00 1.207522180875881812e+00 1.711298148488574355e+01 3.306094793400389531e-02 4.788480249422060631e+00 1.708884605337693685e+01 -3.540166885416018427e-02 7.157100622094747067e+00 2.076540894973304674e+01 -2.036690588990995199e+00 3.534578926783410235e+00 2.073436472585437684e+01 -3.915865152949686567e-02 2.385408363703596990e+00 2.682957291814544121e+01 -2.109479637474692471e+00 6.019906251978169642e+00 2.679296726991196564e+01 2.073803561160488584e+00 1.222083364478837364e+00 3.871181430568988446e+00 -8.009669206184903689e-02 4.774310458121476586e+00 3.728745821397947857e+00 1.131109519446939563e-02 2.418728106851346205e+00 6.158972942329978828e+00 -2.117099012328764740e+00 5.922715510781817017e+00 6.072007536049429888e+00 -1.254166603256256021e-02 7.092975450976309659e+00 2.919632919286190642e+01 2.056819395769839964e+00 3.534652058367405925e+00 4.506461543219724558e-02 -4.436736691711487719e-03 2.387129857893912188e+00 1.361559299689583646e+01 -2.076437666252145320e+00 6.011857736749561809e+00 1.357909737322233745e+01 -7.576949426036144741e-02 7.110955951387061269e+00 1.583697898733759324e+01 2.033340920588771805e+00 3.604008083745088964e+00 1.580384435566103818e+01 2.114329777144858813e+00 1.168780686583202222e+00 9.704441684659075307e+00 -2.922117761792909774e-02 4.776588300070856441e+00 9.718985937684282206e+00 5.598352137034741383e-02 4.985845142783020684e-02 2.325736998937662037e+01 2.065993256082472751e+00 3.534160181398511291e+00 2.328298463920463490e+01 2.124071854150776151e+00 1.121677053831760196e+00 2.551417184628793322e+01 1.495004618958722942e-02 4.801845392697980941e+00 2.570819597053329275e+01 -1.928089538999079589e-02 2.400186846694157161e+00 1.944467292282720194e+01 -2.085741324160987453e+00 5.966664560008971385e+00 1.934069748316797899e+01
2.102989370408061109e+00 1.256786246339066659e+00 1.383391399410762279e+00 2.696897345143267274e-02 4.795364061782780851e+00 1.333206018375677759e+00 -4.120169286760745564e+00 7.141767783047503926e+00 7.398919125720878398e+00 -2.030729043336712447e+00 3.653209879915257030e+00 7.392604392657456280e+00 -1.397060067578601364e-02 2.393272319837663975e+00 1.106109295584824181e+01 -2.006741542225899178e+00 6.014000700749313033e+00 1.103915753530547228e+01 2.079641631911586241e+00 1.209312200635372703e+00 1.711764148217897841e+01 3.766093795470703415e-02 4.789640280038162778e+00 1.709018606108746496e+01 -4.054164961436908243e-02 7.155170582529252421e+00 2.076206894296073102e+01 -2.031980530732976131e+00 3.527528933022933355e+00 2.072716475788013568e+01 -4.460865048894595980e-02 2.384438337666958674e+00 2.683146290781711230e+01 -2.115079669277228458e+00 6.026666210539803892e+00 2.678989723657311472e+01 2.074453532126038002e+00 1.226073375401912635e+00 3.873621420451457187e+00 -9.195664594835499528e-02 4.773510339060962337e+00 3.711575795082734608e+00 1.312105765283976856e-02 2.422768134459747813e+00 6.164812934866110261e+00 -2.123738954655153499e+00 5.915725451486498976e+00 6.064907540475378944e+00 -1.424160902069162606e-02 7.082255447360230605e+00 2.919844922014881305e+01 2.055039413938415827e+00 3.527472076492069508e+00 5.477463216110536187e-02 -5.056748671149107442e-03 2.386739871566610383e+00 1.362148299653775041e+01 -2.077457700212291147e+00 6.017407732985116553e+00 1.357982735449311917e+01 -8.644945106543043545e-02 7.102965893255553276e+00 1.583826898493199842e+01 2.028440913496626585e+00 3.606658045304923732e+00 1.580041433605746448e+01 2.120689794204570600e+00 1.165120728512618165e+00 9.706161710745746518e+00 -3.322118441838702030e-02 4.776138288282232303e+00 9.722875929333373080e+00 6.425348514633263952e-02 5.712849219946738305e-02 2.325490998806113296e+01 2.065483296977787209e+00 3.526800180607271962e+00 2.328371465952918484e+01 2.131681928272782134e+00 1.111637078684134972e+00 2.550758189408337273e+01 1.678997670423503299e-02 4.804875466314512344e+00 2.572967596609780827e+01 -2.190091763094751884e-02 2.401486849332711504e+00 1.945075291268666717e+01 -2.088171296820461542e+00 5.965454521272423705e+00 1.933227748083410802e+01
2.107269320741799845e+00 1.264326278367014389e+00 1.385851387664279510e+00 3.044897400868123993e-02 4.797354067287467494e+00 1.328196020948043454e+00 -4.117999272995228388e+00 7.138257803600938090e+00 7.401639141233588681e+00 -2.025759098480177212e+00 3.661809915125352255e+00 7.394784379467358448e+00 -1.560059689796154669e-02 2.393702302784248115e+00 1.105849295064756177e+01 -1.998771558298759077e+00 6.019040731009287271e+00 1.103370753978857088e+01 2.080591610391763435e+00 1.211092219731151332e+00 1.712227147925981541e+01 4.222092821473755891e-02 4.790750310484529706e+00 1.709154606884681726e+01 -4.573162993786590580e-02 7.153160542707465375e+00 2.075873893630044620e+01 -2.027290473264864445e+00 3.520518939824177185e+00 2.072019478973952289e+01 -5.002864876000159833e-02 2.383328311956356860e+00 2.683340289797085276e+01 -2.120639702025298057e+00 6.033526169777963410e+00 2.678697720303652474e+01 2.075113502786615438e+00 1.230103386472065186e+00 3.876091410240813939e+00 -1.040166004835284680e-01 4.772680219837397431e+00 3.694745768371175743e+00 1.500102000393530727e-02 2.426768162885450497e+00 6.170792927688014906e+00 -2.130338897587126024e+00 5.908885392101732137e+00 6.057697544557176350e+00 -1.592155241351771514e-02 7.071625443719788962e+00 2.920051924721893855e+01 2.053259432560532449e+00 3.520272094207059776e+00 6.434464894803629265e-02 -5.676760077119083134e-03 2.386329884685626901e+00 1.362718299623775309e+01 -2.078497734145685172e+00 6.023027728579892326e+00 1.358037733550909110e+01 -9.710940846259498438e-02 7.095085835184711698e+00 1.583953898225100865e+01 2.023630906716615385e+00 3.609258007361010989e+00 1.579697431681718278e+01 2.127029811272961979e+00 1.161500770035605701e+00 9.707781736666868611e+00 -3.715119091128261247e-02 4.775668276667194512e+00 9.726685921209158536e+00 7.262344855320838899e-02 6.447853343869136555e-02 2.325240998675289816e+01 2.064973338890155663e+00 3.519360179147593470e+00 2.328421468008751916e+01 2.139232001701611541e+00 1.101787102696400122e+00 2.550082194117726075e+01 1.846990757346329490e-02 4.807835539067348840e+00 2.575117596147980237e+01 -2.446093898965951211e-02 2.402696851883875162e+00 1.945668290295421698e+01 -2.090661269226496977e+00 5.964204482162316800e+00 1.932384747847103057e+01
2.033790000000000209e+00 1.192549999999999999e+00 1.328750000000000098e+00 2.026999999999999982e-02 4.708660000000000068e+00 1.331479999999999997e+00 -4.178550000000000431e+00 7.147350000000000314e+00 7.160890000000000200e+00 1.922260000000000080e+00 3.633859999999999868e+00 7.172030000000000349e+00 -2.169399999999999940e-01 2.528799999999999937e+00 1.077731999999999957e+01 -2.220849999999999991e+00 6.035989999999999966e+00 1.077951999999999977e+01 1.689449999999999896e+00 1.462480000000000002e+00 1.660404000000000124e+01 -3.198599999999999777e-01 4.968410000000000437e+00 1.659898000000000096e+01 -3.786399999999999766e-01 7.374929999999999986e+00 2.020602999999999838e+01 -2.468770000000000131e+00 3.867490000000000094e+00 2.020814000000000021e+01 -5.651000000000000467e-01 2.795599999999999863e+00 2.606662000000000035e+01 -2.578149999999999942e+00 6.303639999999999688e+00 2.607238999999999862e+01 1.977770000000000028e+00 1.242070000000000007e+00 3.751720000000000166e+00 -3.305000000000000299e-02 4.743859999999999744e+00 3.747879999999999878e+00 -1.098699999999999954e-01 2.443789999999999907e+00 5.953120000000000189e+00 -2.117230000000000167e+00 5.957099999999999618e+00 5.949069999999999858e+00 -5.627499999999999725e-01 7.512990000000000279e+00 2.837002000000000024e+01 -2.652690000000000214e+00 4.006249999999999645e+00 2.836403999999999925e+01 -2.809099999999999930e-01 2.572029999999999816e+00 1.319106000000000023e+01 -2.279199999999999893e+00 6.081349999999999589e+00 1.319317999999999991e+01 -3.499200000000000088e-01 2.707999999999999852e-01 1.539293999999999940e+01 1.738150000000000084e+00 3.784279999999999866e+00 1.537884000000000029e+01 1.850810000000000066e+00 1.332319999999999949e+00 9.421049999999999258e+00 -1.648999999999999910e-01 4.844280000000000364e+00 9.424490000000000478e+00 -5.138899999999999579e-01 3.945899999999999963e-01 2.262327000000000155e+01 -2.523699999999999832e+00 3.908869999999999845e+00 2.262447999999999837e+01 1.500029999999999974e+00 1.603990000000000027e+00 2.484363000000000099e+01 -5.082699999999999996e-01 5.112529999999999575e+00 2.484441999999999950e+01 -3.998499999999999832e-01 2.668379999999999974e+00 1.885666000000000153e+01 -2.413819999999999855e+00 6.185240000000000293e+00 1.885491000000000028e+01
2.030079999999999885e+00 1.192690000000000028e+00 1.329520000000000035e+00 1.998000000000000123e-02 4.705720000000000347e+00 1.329460000000000086e+00 -1.607599999999999862e-01 1.262900000000000134e-01 7.166330000000000311e+00 1.920840000000000103e+00 3.633900000000000130e+00 7.170889999999999986e+00 -2.070400000000000018e-01 2.539010000000000211e+00 1.078123000000000076e+01 -2.228180000000000049e+00 6.034150000000000347e+00 1.077093999999999951e+01 1.684779999999999944e+00 1.460639999999999938e+00 1.660947000000000173e+01 -3.239500000000000157e-01 4.959620000000000140e+00 1.660060000000000002e+01 -3.842400000000000260e-01 7.371850000000000236e+00 2.020801000000000158e+01 -2.463870000000000005e+00 3.871970000000000134e+00 2.020727000000000118e+01 -5.660800000000000276e-01 2.799360000000000070e+00 2.606878000000000029e+01 -2.564550000000000107e+00 6.301989999999999981e+00 2.606785999999999959e+01 1.983000000000000096e+00 1.230509999999999993e+00 3.740330000000000155e+00 -3.466000000000000331e-02 4.738380000000000258e+00 3.749190000000000023e+00 -1.088999999999999968e-01 2.447610000000000063e+00 5.942750000000000199e+00 -2.110949999999999882e+00 5.960950000000000415e+00 5.950890000000000235e+00 3.447999999999999954e+00 4.966200000000000059e-01 2.838024000000000058e+01 -2.653529999999999944e+00 4.015520000000000422e+00 2.836759999999999948e+01 -2.849700000000000011e-01 2.571600000000000108e+00 1.318693999999999988e+01 -2.274579999999999824e+00 6.075910000000000366e+00 1.318823000000000079e+01 -3.436600000000000210e-01 2.715799999999999881e-01 1.539624000000000059e+01 1.722960000000000047e+00 3.774010000000000087e+00 1.537698999999999927e+01 1.847939999999999916e+00 1.328929999999999945e+00 9.426569999999999894e+00 -1.601299999999999946e-01 4.853600000000000136e+00 9.427369999999999806e+00 -5.192600000000000549e-01 4.054099999999999926e-01 2.261672000000000082e+01 1.574940000000000007e+00 3.907700000000000173e+00 2.262669999999999959e+01 1.494359999999999911e+00 1.607779999999999987e+00 2.483881999999999834e+01 -5.025399999999999867e-01 5.108979999999999855e+00 2.484129000000000076e+01 -4.001500000000000057e-01 2.664709999999999912e+00 1.885836000000000112e+01 -2.404139999999999944e+00 6.179269999999999818e+00 1.886337999999999937e+01
2.026359999999999939e+00 1.192779999999999951e+00 1.330209999999999892e+00 1.974000000000000060e-02 4.702709999999999724e+00 1.327360000000000095e+00 -1.608400000000000107e-01 1.290300000000000058e-01 7.171899999999999942e+00 1.919429999999999970e+00 3.633890000000000065e+00 7.169789999999999885e+00 -1.970000000000000084e-01 2.549259999999999859e+00 1.078505999999999965e+01 -2.235539999999999861e+00 6.032259999999999955e+00 1.076221999999999923e+01 1.680099999999999927e+00 1.458730000000000082e+00 1.661502000000000123e+01 -3.281000000000000028e-01 4.950680000000000192e+00 1.660228999999999999e+01 -3.898499999999999743e-01 7.368689999999999962e+00 2.020992999999999995e+01 -2.458880000000000177e+00 3.876419999999999977e+00 2.020634000000000086e+01 -5.670500000000000540e-01 2.803080000000000016e+00 2.607102000000000075e+01 -2.550800000000000178e+00 6.300290000000000390e+00 2.606334000000000017e+01 1.988280000000000047e+00 1.218839999999999923e+00 3.729130000000000056e+00 -3.629999999999999893e-02 4.732859999999999623e+00 3.750750000000000028e+00 -1.079800000000000065e-01 2.451550000000000118e+00 5.932170000000000165e+00 -2.104659999999999975e+00 5.964900000000000091e+00 5.952589999999999826e+00 4.085650000000000226e+00 9.350000000000000672e-03 1.049999999999999935e-03 -2.654430000000000067e+00 4.024919999999999831e+00 2.837102000000000146e+01 -2.891000000000000236e-01 2.571159999999999890e+00 1.318308000000000035e+01 -2.269909999999999872e+00 6.070429999999999993e+00 1.318347999999999942e+01 -3.373900000000000232e-01 2.724300000000000055e-01 1.539944999999999986e+01 1.707619999999999916e+00 3.763729999999999798e+00 1.537498000000000076e+01 1.845010000000000039e+00 1.325590000000000046e+00 9.432000000000000384e+00 -1.553400000000000059e-01 4.863050000000000317e+00 9.430110000000000881e+00 -5.247000000000000552e-01 4.163499999999999979e-01 2.261043000000000092e+01 1.574130000000000029e+00 3.906519999999999992e+00 2.262920000000000087e+01 1.488599999999999923e+00 1.611669999999999936e+00 2.483386000000000138e+01 -4.967799999999999994e-01 5.105520000000000280e+00 2.483799000000000134e+01 -4.004900000000000126e-01 2.661090000000000177e+00 1.885991999999999891e+01 -2.394410000000000149e+00 6.173320000000000363e+00 1.887175999999999831e+01