-1.001986736300000018e+02
-1.001889667800000012e+02
-1.001634928400000035e+02
-1.001220002000000022e+02
-1.000645060699999931e+02
-9.999149550999999292e+01
-9.990391583999999625e+01
-9.980289451999999528e+01
-9.968945392999999910e+01
-9.956431123000000127e+01
-9.965874922999999797e+01
-9.963852629999999522e+01
-9.960622410000000571e+01
-9.956171148999999332e+01
-9.950516249999999729e+01
-9.943726526000000376e+01
-9.935923350999999570e+01
-9.927259431000000234e+01
-9.917889974000000564e+01
-9.907948799999999778e+01
-9.996435250999999766e+01
-9.996501664999999548e+01
-9.995109139999999570e+01
-9.992234546000000250e+01
-9.987890554000000520e+01
-9.982137478999999303e+01
-9.975077663999999800e+01
-9.966830534999999713e+01
-9.957509120999999652e+01
-9.947193459999999732e+01
-9.997768383000000370e+01
-9.996971304000000202e+01
-9.994620779000000255e+01
-9.990699535000000253e+01
-9.985227387000000476e+01
-9.978282584999999472e+01
-9.969988591000000611e+01
-9.960489925999999627e+01
-9.949912990999999352e+01
-9.938352285000000563e+01
-1.001429918200000060e+02
-1.001384066199999978e+02
-1.001238261700000010e+02
-1.000990324400000020e+02
-1.000640181699999971e+02
-1.000191568500000017e+02
-9.996513419000000056e+01
-9.990280948000000194e+01
-9.983293471999999724e+01
-9.975605256000000054e+01
