6.541832512850308257e-03 3.705214952989374557e-03 6.043200495206127454e-02 6.541832534594339311e-03 3.705214926626214204e-03 6.042300495206133493e-02 -1.391287572437553167e-02 -8.091174467447396351e-03 -3.202000991279373848e-02 -1.391087572534197361e-02 -8.090174461709067136e-03 -3.202200991089100557e-02 7.946865669087029710e-03 4.776175370702810154e-03 4.413800520940856092e-02 7.947865718373480631e-03 4.775175323774925699e-03 4.412000521475393372e-02 -1.348189770566628892e-02 -7.873146850101563066e-03 -2.344500951014278842e-02 -1.348089767280866332e-02 -7.872146891171011990e-03 -2.346100951065593909e-02 7.574772349029730047e-03 4.313289612914073326e-03 8.387500566661978962e-02 7.574772331634505029e-03 4.316289612914010407e-03 8.387500565783202744e-02 -1.269691229109438414e-02 -7.373128129621993321e-03 -1.860800907825534145e-02 -1.269791227998074735e-02 -7.377128120774123499e-03 -1.860300906895434939e-02 -1.097929222675144475e-03 -6.480876237653537039e-04 -2.774000075439649396e-02 -1.097929276310420166e-03 -6.450875798268161437e-04 -2.772500076318436604e-02 1.688900455190042380e-02 9.802023500168148204e-03 -2.540898790877035851e-02 1.689000458379164363e-02 9.799023488391185588e-03 -2.541498789756656621e-02 -8.396904921402407670e-03 -4.769130438423772878e-03 -2.790800631722423555e-02 -8.396904916570401348e-03 -4.769130444282253245e-03 -2.791000631722422368e-02 -1.497007885322405515e-03 -8.429931933177110120e-04 5.286998852591377925e-03 -1.497007987277749639e-03 -8.399930907943723791e-04 5.321998843803363646e-03 1.586003285443431110e-02 9.232987218905535851e-03 -3.575798872800022704e-02 1.585703270367575662e-02 9.253987236660727450e-03 -3.574598879676260665e-02 -9.128976721143803111e-03 -5.458042786730278768e-03 3.463993932303593114e-03 -9.128976689735758543e-03 -5.463042789659412930e-03 3.462993946949870661e-03 -1.132050629261994188e-03 -6.629405182166262867e-04 2.254699920703627167e-02 -1.132050640858810577e-03 -6.609405182166686304e-04 2.254699920117776354e-02 1.519098150471096149e-02 8.813048550516637894e-03 -1.349598911416892248e-02 1.519098151775738134e-02 8.812048541728938894e-03 -1.349898911123964713e-02 -8.637932342553191617e-03 -4.922097513932927743e-03 -1.619100645138555825e-02 -8.635932308729183521e-03 -4.927097508194470954e-03 -1.619300643190730096e-02
-8.097876217836032578e-03 -5.094783885834676396e-02 7.104112967446772620e-02 -3.922939090059505279e-03 -4.150067420936664336e-03 -1.525099732140043456e-02 -5.407681740657279551e-02 -2.718515833667049797e-03 -6.905312268708987955e-02 -2.481164508232136523e-02 -4.593425125818412919e-02 -3.666092539283383189e-02 2.605964157281012716e-02 3.135834742534037833e-04 1.476040620426868344e-01 -1.645927551346124118e-02 -1.097968420279866325e-02 1.403889923974767640e-01 -6.219572389354929842e-02 -2.167254303863665188e-02 -6.226908678145056525e-02 -5.755074998164624867e-02 -3.270740689683505897e-02 -2.498704323514309988e-02 1.451187801666566080e-02 -1.783064260178656921e-02 9.328408729165317548e-02 -1.009278721393775703e-02 5.013854344603287799e-02 2.055018287494406737e-01 4.440538458290264889e-02 -5.835179857700205364e-02 -1.913672179014717575e-02 2.357789542379168726e-02 -2.720717364809518632e-03 4.981506493427029919e-02 1.100789366291039459e-04 -3.786068451151385853e-03 -2.358598864391540928e-02 -1.147232373122448936e-03 -3.352701341874683542e-03 1.042280070499011918e-01 2.742612492423273512e-02 -1.805786548416021473e-02 -8.367880842624084506e-03 5.826362099990534810e-02 7.222328960741082604e-02 -1.646507079436504081e-02 8.450823209746868847e-03 4.456395005466665116e-02 -3.377911012153488740e-02 1.867157458156320105e-03 8.364761110675821010e-03 -8.524901999194933744e-02 1.061203310052186979e-03 -2.481222905616929913e-03 -7.819699016859521512e-02 -4.419865788504883167e-03 -2.455171092078180066e-03 -4.965900348698338435e-02 7.111466461672857897e-02 7.094232024578632501e-02 -3.144403599404042154e-02 5.821311139352278174e-02 -1.258970900513490740e-02 -1.589082247875586718e-02 -3.364501170294013910e-02 1.257273071146869370e-02 -2.533111811519406231e-02 1.802809044273364844e-02 -5.079969408868354255e-03 -2.524294156380308893e-02 -2.998994415107245504e-03 -8.938961317745103274e-03 1.914201893892105225e-02 -2.103934757234796581e-03 9.898839105839303890e-03 -5.076203407955601210e-02 -4.439846570311797858e-02 8.776969015599708768e-02 -1.789036436547133263e-02 -1.918768470392258341e-02 -1.719537265037145157e-02 -8.923499598878072148e-02 5.686304669520276557e-03 -2.401716757719754222e-02 -6.846391591031149304e-02 -1.368397106567264924e-02 -1.099003716422658310e-02 1.439999913203998325e-02
-2.136957573195734372e-02 -1.084228760726965446e-01 8.460826596828958934e-02 -1.301869026228784712e-02 -1.316635846561876703e-02 -9.660399288647152083e-02 -9.135276827108144981e-02 3.478164885889074506e-03 -1.042632308977458344e-01 -3.490741343520124135e-02 -8.441232014719358967e-02 -4.019383707276066170e-02 4.472742578948332021e-02 -4.136015374355128324e-03 2.475981201787876285e-01 -4.245641346579788478e-02 -2.731555284044060936e-02 2.366949774406763851e-01 -1.077965659096809248e-01 -3.367091464750565644e-02 -9.886416180740222048e-02 -1.002996083517634363e-01 -5.726065387645767890e-02 -2.468107459417804087e-02 2.127398340695100393e-02 -4.012257445444906978e-02 1.031631689274227631e-01 -3.105735204378490613e-02 9.750377372104684914e-02 3.256126393556971199e-01 9.721266411252413309e-02 -1.075504854132873916e-01 -1.675845009276888398e-02 6.274469912369105840e-02 1.993714600993839927e-03 1.197511457522109218e-01 1.452086608867110811e-03 -6.960047657928667732e-03 -1.914397610423995699e-02 -3.057548325478129467e-03 -6.910304332585876300e-03 2.435420128566494480e-01 3.782024382958151798e-02 -4.560975568431761135e-02 8.541224975836828048e-03 9.656724015627632385e-02 1.346645344834614400e-01 -8.690161158038669023e-03 2.421254375995968849e-02 9.640401581734556191e-02 -4.252922389323633701e-02 1.242821400161928103e-02 2.378764536564121485e-02 -1.456680396541686073e-01 3.644406340802704841e-03 -3.958443705764052960e-03 -1.586879796010126631e-01 -6.622726722323817733e-03 -3.856342624928255428e-03 -1.038570047051260714e-01 1.224753067036169346e-01 1.316206254239846996e-01 -2.892908964786257073e-02 9.977319717871280247e-02 -3.540041166683401824e-02 3.348344748734227022e-03 -5.885305184385934696e-02 3.199949663808592665e-02 -5.534123592379493889e-02 4.693716201095774615e-02 -5.241887415875131837e-03 -5.447687124529449615e-02 -4.897936089844290297e-03 -1.685698737920383189e-02 1.400403754483554516e-02 -2.686819040313651302e-03 1.977862596811250789e-02 -1.223700644285934530e-01 -9.964790398973871755e-02 1.667173461733295337e-01 -2.595572910503626471e-02 -5.721134603550977193e-02 -4.455781138059835417e-02 -1.637430077034625064e-01 2.319555628001415334e-02 -4.484322470288682611e-02 -1.226248126037593478e-01 -1.869700912246057695e-02 -1.718497653821911969e-02 4.502000516720854051e-02
-3.348826386281124334e-02 -1.696068943278752350e-01 1.023654159123465884e-01 -2.089542019879604001e-02 -2.388665620947486717e-02 -1.826569805149699244e-01 -1.262887271200333061e-01 1.063686209117792325e-02 -1.384773362729621038e-01 -4.464617526966679906e-02 -1.244003842536779425e-01 -4.280074346699450083e-02 6.422421899798182177e-02 -8.702619495507440614e-03 3.441511806604993784e-01 -7.097554480840925772e-02 -4.485843563001814388e-02 3.331619599263652698e-01 -1.507644221087423853e-01 -4.402326536511050326e-02 -1.335392352936395077e-01 -1.422264717974101311e-01 -8.180688998529284106e-02 -2.229110398779521329e-02 2.822608982742853823e-02 -6.249050592012305588e-02 1.127982512448708063e-01 -5.599092458119224458e-02 1.471319744177318756e-01 4.434824337439794983e-01 1.466869271694656862e-01 -1.551361829432052197e-01 -1.143319117273200111e-02 1.054004999271850040e-01 6.285173282893575554e-03 1.919012362386013082e-01 2.824100126387239611e-03 -1.050003120470451891e-02 -1.624296241996425402e-02 -6.352881185052795462e-03 -1.119288975830873972e-02 3.915940174409038854e-01 4.775135885775727562e-02 -7.257964795985161199e-02 2.565832797088883274e-02 1.318588649598083362e-01 1.966197584645959506e-01 -2.086257375058576426e-03 3.881625132847873333e-02 1.517370660483780276e-01 -5.428935069453814238e-02 2.323426312602562549e-02 4.200752037283693452e-02 -2.097290669175741473e-01 6.368599166868830347e-03 -5.263652525047200770e-03 -2.353679691966332754e-01 -8.018594006359076876e-03 -4.926504106270310213e-03 -1.562210049431640435e-01 1.701499603689733131e-01 1.913479018769004003e-01 -2.892414942128667885e-02 1.404482921471659485e-01 -5.924612331786749397e-02 2.127051286989459222e-02 -8.498009881529232368e-02 5.329925234990261912e-02 -8.701936143919093702e-02 7.786724135868687557e-02 -6.233797301362384823e-03 -8.493879361277467677e-02 -7.107880100359008010e-03 -2.459301369147886759e-02 9.396054866253894175e-03 -2.871708307114315909e-03 2.911042503310067031e-02 -1.906000922108671836e-01 -1.507253333237745796e-01 2.458560141842331404e-01 -3.818508432463143393e-02 -9.919699887519115022e-02 -7.353227204724464838e-02 -2.378970242683277614e-01 4.441982377812012106e-02 -6.743926710671251101e-02 -1.791136951370001507e-01 -2.369404566007039803e-02 -2.364191581942165152e-02 7.564001200849904127e-02
-4.453693683463655351e-02 -2.348268963840873524e-01 1.235345802640083340e-01 -2.708512625452500280e-02 -3.640796046388750790e-02 -2.742719587920654511e-01 -1.586566947217203372e-01 1.864257884418256753e-02 -1.711014379250427875e-01 -5.372693630631676653e-02 -1.651964398316624616e-01 -4.379864590465007423e-02 8.442902299531629406e-02 -1.340323165002112182e-02 4.365602432452962423e-01 -1.015786707657444637e-01 -6.339133007281708143e-02 4.297759402770979231e-01 -1.908472934455344161e-01 -5.265659308584907244e-02 -1.660743068451751570e-01 -1.830843408800601202e-01 -1.062201139961986007e-01 -1.788713118832978635e-02 3.545319581352400495e-02 -8.492643478647010635e-02 1.227763344259282102e-01 -8.517050596075954882e-02 1.990771449258963155e-01 5.594512110868488097e-01 1.927991737112247361e-01 -2.007598937368709757e-01 -3.980946122378277614e-03 1.513703001995276021e-01 1.012865497424943542e-02 2.653463360438909624e-01 4.314115449148330818e-03 -1.416801535612890843e-02 -1.378194807565009082e-02 -1.115422661466524551e-02 -1.628846296050731612e-02 5.468000207681166236e-01 5.731747251851181807e-02 -9.908454396286879573e-02 4.222542872203867426e-02 1.642864954766666552e-01 2.581729617381969266e-01 3.117640666067087417e-03 5.228294767074478239e-02 2.103691001050013998e-01 -6.932048990644885944e-02 3.426630286378463258e-02 6.334038618610135507e-02 -2.773761027537212653e-01 9.268781309895035223e-03 -6.436848299349903595e-03 -3.079429587537284574e-01 -8.710467499504253447e-03 -5.741655770132557575e-03 -2.066270042273211371e-01 2.143246255707290382e-01 2.501551505160876099e-01 -3.148621495576078844e-02 1.801663950676980486e-01 -8.399284382500274426e-02 3.806368131827030099e-02 -1.119261531961210365e-01 7.654599860834443437e-02 -1.203034946365639790e-01 1.106633285642109055e-01 -8.106699700447085946e-03 -1.165387088913218960e-01 -9.622822952622395523e-03 -3.214504447011064248e-02 3.867070911826280075e-03 -2.715602298631860680e-03 3.799623493917560213e-02 -2.558041178628729928e-01 -1.977817565010563938e-01 3.253686954163106937e-01 -5.386043092516906022e-02 -1.451056438718752450e-01 -1.041647533140431653e-01 -3.113180454544083320e-01 6.942610770408123855e-02 -9.192429421857428729e-02 -2.378685629995655748e-01 -2.868108197348282623e-02 -3.019085466767620213e-02 1.063880191434430772e-01
-5.408760214426951152e-02 -3.030078782276289240e-01 1.486387569083973681e-01 -3.160681498696009395e-02 -5.093226196842735171e-02 -3.682499271719678058e-01 -1.884226701914020197e-01 2.743731467708560370e-02 -2.023625356019554955e-01 -6.192969979465953734e-02 -2.060904866571110494e-01 -4.354654593396010964e-02 1.051508386439895665e-01 -1.818285437774169733e-02 5.243363073106263039e-01 -1.336937899413741526e-01 -8.259923675972971613e-02 5.252029189521149055e-01 -2.280071794953170139e-01 -5.967789735214044239e-02 -1.963883760567760040e-01 -2.225142159630773830e-01 -1.302993248000713644e-01 -1.180115591721672512e-02 4.279130061483879532e-02 -1.070763635832881477e-01 1.325584170374329296e-01 -1.180760851418955482e-01 2.521722830789464576e-01 6.717499760590360802e-01 2.352824029845137499e-01 -2.442996192867857019e-01 5.617284055881773333e-03 2.000900988684893300e-01 1.373115624956498630e-02 3.400334431991185458e-01 5.873132673310305606e-03 -1.787600113156456033e-02 -1.201193344745123126e-02 -1.805058128605082843e-02 -2.223603111551945843e-02 7.078760215295226699e-01 6.655258231902101695e-02 -1.247474431242060339e-01 5.836952620711352568e-02 1.938021352636625227e-01 3.186611443745465122e-01 7.040534791442367574e-03 6.450563264225256388e-02 2.723171174224342517e-01 -8.760364183730551257e-02 4.543733322166373240e-02 8.766424315042457838e-02 -3.483191470154443081e-01 1.234195217845665028e-02 -7.496030202473982773e-03 -3.761249482268202993e-01 -8.772349842441110393e-03 -6.166795793035162801e-03 -2.543060031318348790e-01 2.545243053409523282e-01 3.073523697619509609e-01 -3.621428537771567008e-02 2.185525049178750068e-01 -1.093875759016068733e-01 5.354384844678623107e-02 -1.394482156082367530e-01 1.016307383426726108e-01 -1.546746346095633773e-01 1.450334230588184170e-01 -1.088459544799483258e-02 -1.489836177160941688e-01 -1.212576756130289389e-02 -3.934707551018229443e-02 -1.774914038838880078e-03 -2.268503348717428904e-03 4.635105882360376905e-02 -3.168121412564355310e-01 -2.404821690959902392e-01 4.045583913462687531e-01 -7.314076605564685807e-02 -1.945552846669371949e-01 -1.363522492752213544e-01 -3.827460706405160784e-01 9.821940540563819932e-02 -1.180863042841724803e-01 -2.983004168003603462e-01 -3.365211711659379934e-02 -3.684579409684859974e-02 1.369060266275509419e-01
-6.225225843581106561e-02 -3.744878397755866395e-01 1.779279465650508707e-01 -3.437748937065155524e-02 -6.756155591831516927e-02 -4.631148851553651968e-01 -2.156326529313582208e-01 3.684006987090428925e-02 -2.320736288846522444e-01 -6.942146631209469843e-02 -2.470125254903866030e-01 -4.197344416342114332e-02 1.262106682179349737e-01 -2.307949120638450730e-02 6.066293725353535393e-01 -1.676249007479864994e-01 -1.026171584288787936e-01 6.191098956124106989e-01 -2.622060800976624972e-01 -6.511817792023927298e-02 -2.244734427458318360e-01 -2.603160976944283722e-01 -1.538465218435988158e-01 -4.240178271244570037e-03 5.022340389990671145e-02 -1.289172921689415718e-01 1.422264989709533523e-01 -1.550246634964571046e-01 3.065393878443555820e-01 7.806537275372595897e-01 2.741336155155544851e-01 -2.856023613239307979e-01 1.677649890665651108e-02 2.511728979190473443e-01 1.708867248638403641e-02 4.151505567810320763e-01 7.418153518589420785e-03 -2.167599073174366134e-02 -1.151991858356656885e-02 -2.686293846439615635e-02 -2.902960139307604256e-02 8.720200201400293283e-01 7.540068941221264587e-02 -1.496213467937958785e-01 7.374062044608606370e-02 2.204387857573201492e-01 3.778053067847020330e-01 9.757425898028670649e-03 7.540230718182845682e-02 3.373471180319592699e-01 -1.089658059998116629e-01 5.670835162903431481e-02 1.151840927151522448e-01 -4.219862003974834130e-01 1.559711059838759031e-02 -8.496196371990852314e-03 -4.392959374330591693e-01 -8.319241151127521744e-03 -6.276924173948890580e-03 -2.990300017148511680e-01 2.909460004131129152e-01 3.629155600361938516e-01 -4.335436014092178963e-02 2.554726220204909803e-01 -1.354093208636239221e-01 6.752701387020963730e-02 -1.673002867600259513e-01 1.285464738873258739e-01 -1.898227807433768566e-01 1.806965248256147960e-01 -1.466248548498378171e-02 -1.820385204876940610e-01 -1.476771307450964847e-02 -4.624810837562998850e-02 -7.764900207017515037e-03 -1.633412255126869819e-03 5.435289580498092743e-02 -3.737211631618119756e-01 -2.787535699982179316e-01 4.829161046294547233e-01 -9.526408804876181080e-02 -2.471489226746776124e-01 -1.699087572217191366e-01 -4.520420994123414138e-01 1.307787154129283202e-01 -1.458292963180343182e-01 -3.600312568713044947e-01 -3.849515212104238915e-02 -4.347173315579341835e-02 1.672970343359657386e-01
-6.898390596096937166e-02 -4.489187828966926808e-01 2.106711483281949460e-01 -3.518915215497648435e-02 -8.645083668437718305e-02 -5.573568317856927301e-01 -2.403836426579490926e-01 4.676484412386893580e-02 -2.601457177555795974e-01 -7.630623584554992178e-02 -2.879235572245209540e-01 -3.917834095851119303e-02 1.474985108560782632e-01 -2.803214215857801825e-02 6.836494384750422260e-01 -2.028650048115712978e-01 -1.231500922429628470e-01 7.114618706187639807e-01 -2.934749949563637550e-01 -6.908643456275787020e-02 -2.501905066679550593e-01 -2.963659870124817908e-01 -1.767107043316323844e-01 4.821801606857420777e-03 5.763550431626022347e-02 -1.503222204574833076e-01 1.520355795790648279e-01 -1.957412381586464689e-01 3.618204598588661280e-01 8.858354672345416514e-01 3.094338120460744523e-01 -3.246581203481899713e-01 2.916569859637954329e-02 3.040416991356531540e-01 2.021719806308251363e-02 4.899206753487578836e-01 8.989175223978254636e-03 -2.547598122397113848e-02 -1.138390365685188095e-02 -3.773429358638697578e-02 -3.666618017609696301e-02 1.037336016245377746e+00 8.390879280511789884e-02 -1.735212547957688534e-01 8.830571101061171491e-02 2.443884490266699516e-01 4.352094503573256667e-01 1.136231560964899232e-02 8.497597113819108094e-02 4.054831019656006674e-01 -1.334019824570671087e-01 6.799535806994913556e-02 1.458339348764984555e-01 -4.982122629094717370e-01 1.897025673302240451e-02 -9.456347243471330266e-03 -4.974779264714104809e-01 -7.489141469041287087e-03 -6.082041590048901936e-03 -3.407570002804837239e-01 3.238327114588294697e-01 4.165197242183223403e-01 -5.240443770631664916e-02 2.908257440552325379e-01 -1.617520786346669237e-01 8.023917644819707207e-02 -1.953283665036437133e-01 1.571252071370235481e-01 -2.254059321738575705e-01 2.173186332451572111e-01 -1.943937100405507615e-02 -2.154494180159778616e-01 -1.744065937965363217e-02 -5.272714342738780979e-02 -1.443988768621748582e-02 -8.833285694421136444e-04 6.195774522565598852e-02 -4.266111836264857016e-01 -3.127179579393719600e-01 5.601318351999409195e-01 -1.200113962912502247e-01 -3.023685598810229580e-01 -2.047342724452193563e-01 -5.186241308113255233e-01 1.669890361710518190e-01 -1.749892702546828882e-01 -4.228110839706035184e-01 -4.321318636350277020e-02 -5.004867275823852296e-02 1.972550422028596373e-01
-7.425954543919094375e-02 -5.263837060017151348e-01 2.473653624965806153e-01 -3.395080885177154811e-02 -1.077140962547924186e-01 -6.484207665091578088e-01 -2.628816376543599564e-01 5.699263569957679215e-02 -2.867638020709328273e-01 -8.265800981319761098e-02 -3.284935828890970799e-01 -3.536623746463951612e-02 1.689353667850339580e-01 -3.302780805849787893e-02 7.552715049007588943e-01 -2.393321002360556393e-01 -1.442550396246239652e-01 8.016108443362631730e-01 -3.222459231939184821e-01 -7.164567040563368794e-02 -2.737515686823119299e-01 -3.305368824357388102e-01 -1.989298730568431761e-01 1.486278413524341584e-02 6.492860274526852937e-02 -1.712931500774718674e-01 1.616256586284610108e-01 -2.401918079785012594e-01 4.179904981010890697e-01 9.868791953062048261e-01 3.413549936995236012e-01 -3.615568960915953034e-01 4.253588380426170934e-02 3.586625043095155729e-01 2.285073248089469766e-02 5.642407995993494740e-01 1.050919961791411429e-02 -2.936297465994927580e-02 -1.215188859848587502e-02 -5.054264219694562521e-02 -4.513077226405132203e-02 1.201944010096394511e+00 9.213289243492785163e-02 -1.964321668346945271e-01 1.020547979920628651e-01 2.659271243256173811e-01 4.908955774426708163e-01 1.211120452863693499e-02 9.314862244078526976e-02 4.770650688911506343e-01 -1.608711723935206117e-01 7.941335136587217292e-02 1.798207702748617076e-01 -5.770063348799525649e-01 2.243039084184835982e-02 -1.039748316365949471e-02 -5.507279153552535611e-01 -6.424050877835749997e-03 -5.660148217366641442e-03 -3.792659989433226353e-01 3.535784372850509505e-01 4.683218649356289398e-01 -6.324751758192471984e-02 3.247268709269218734e-01 -1.883948485801188732e-01 9.166933639709802517e-02 -2.234574548680964834e-01 1.873269388429640026e-01 -2.613160886026673069e-01 2.547637483155301141e-01 -2.526325245399991745e-02 -2.491003104889005781e-01 -2.017960689759741577e-02 -5.887117974650573488e-02 -2.141687630615288565e-02 -8.625444286914100891e-05 6.935160799189038494e-02 -4.750382033595932363e-01 -3.426703335795309169e-01 6.361835823020988157e-01 -1.470566914314406226e-01 -3.599081962675806934e-01 -2.407777935522890100e-01 -5.826221642475575280e-01 2.067913669547633282e-01 -2.054882261052347892e-01 -4.865268984692463494e-01 -4.768522007784965766e-02 -5.661461165185922156e-02 2.269680506318812463e-01
-7.822617280526010519e-02 -6.075066104848795279e-01 2.878255905429789041e-01 -3.084946333530320592e-02 -1.316623288301747574e-01 -7.339566888665425282e-01 -2.833046374180610005e-01 6.747844327296763367e-02 -3.120278821289499405e-01 -8.871378593237141952e-02 -3.690196045379158241e-01 -3.076913338437827633e-02 1.904672351364855576e-01 -3.804048834922871269e-02 8.217925716058857022e-01 -2.770001882357280287e-01 -1.659329989438056152e-01 8.900618168306548839e-01 -3.484898636216542944e-01 -7.284588637040655124e-02 -2.955286285723781603e-01 -3.630567837844381196e-01 -2.205050295521794879e-01 2.581076876600577052e-02 7.216469879312964464e-02 -1.918250802270792255e-01 1.711477362543001868e-01 -2.886023752179340818e-01 4.752325027164282512e-01 1.084281910670120475e+00 3.701351619767275780e-01 -3.964666878126777427e-01 5.666905559744592202e-02 4.144393132676438274e-01 2.520327098931616355e-02 6.376689274660346518e-01 1.196122697485984231e-02 -3.342597084532762663e-02 -1.372387318883386102e-02 -6.519397912681634821e-02 -5.438238366744624352e-02 1.363606001800101719e+00 1.001679879421459585e-01 -2.182970823245630465e-01 1.149998814530043822e-01 2.854458109665361509e-01 5.449576904807443833e-01 1.206309332426227024e-02 9.991225872816408837e-02 5.524740189467274298e-01 -1.913103769446071467e-01 9.101033069051862878e-02 2.172645993466890135e-01 -6.583144165444997364e-01 2.593251406667572423e-02 -1.134860557398823487e-02 -5.994489041083549408e-01 -5.269968377278830447e-03 -5.061245763683396709e-03 -4.148509979096375311e-01 3.805361772761554628e-01 5.184039844048425882e-01 -7.582559915512919468e-02 3.573610022393459151e-01 -2.152776295686710806e-01 1.018374939881390995e-01 -2.516545518727274500e-01 2.191366693253410103e-01 -2.975092499061716134e-01 2.929138701300095793e-01 -3.217313035792169346e-02 -2.829361980772910345e-01 -2.300555605355340816e-02 -6.461021743132537576e-02 -2.868786632260532030e-02 6.678107981770712220e-04 7.657748246283514748e-02 -5.193842227045329940e-01 -3.689236978087734320e-01 7.111823444197765687e-01 -1.762979745507343154e-01 -4.193438329195934844e-01 -2.779063177036750210e-01 -6.439061990862396945e-01 2.501767075471447166e-01 -2.372741640244095951e-01 -5.512137005412582891e-01 -5.188225298141382197e-02 -6.325454941363756189e-02 2.565230599420844637e-01
1.159049999999999941e-01 -1.351459999999999884e-01 -1.426459999999999950e-01 1.293239999999999945e-01 -1.827979999999999883e-01 -2.089920000000000111e-01 4.238299999999999707e-02 -1.887429999999999941e-01 2.420219999999999871e-01 7.341499999999999415e-02 -1.606960000000000055e-01 2.121840000000000115e-01 1.292790000000000050e-01 -1.685669999999999946e-01 -2.152799999999999991e-01 9.334399999999999642e-02 -1.303979999999999861e-01 -2.173059999999999992e-01 3.639200000000000074e-02 -1.522050000000000070e-01 2.106659999999999922e-01 2.586000000000000104e-02 -1.719199999999999895e-01 2.183599999999999985e-01 1.143359999999999932e-01 -1.451240000000000030e-01 -1.459550000000000014e-01 1.269629999999999925e-01 -1.554919999999999913e-01 -1.757910000000000028e-01 5.998499999999999666e-02 -1.922520000000000062e-01 2.343050000000000133e-01 8.404200000000000559e-02 -1.595900000000000096e-01 2.077700000000000102e-01 -2.087800000000000072e-02 5.787999999999999742e-03 4.600219999999999865e-01 -1.974400000000000113e-02 6.157000000000000146e-03 5.333080000000000043e-01 -9.298700000000000021e-02 2.105499999999999872e-01 -2.785079999999999778e-01 -6.743100000000000482e-02 1.541029999999999900e-01 -2.679400000000000115e-01 -7.291100000000000358e-02 1.628390000000000115e-01 -3.610430000000000028e-01 -8.742500000000000271e-02 1.287739999999999996e-01 -3.199409999999999754e-01 -2.310999999999999860e-02 2.330000000000000040e-03 5.551960000000000228e-01 -2.605499999999999830e-02 1.581600000000000020e-02 5.543510000000000382e-01 -6.200100000000000056e-02 1.837799999999999989e-01 -2.786460000000000048e-01 -5.048199999999999910e-02 1.552749999999999964e-01 -2.528259999999999952e-01 -8.524400000000000033e-02 1.244109999999999938e-01 -2.841000000000000192e-01 -4.089199999999999779e-02 1.413659999999999917e-01 -3.142889999999999850e-01 -2.157299999999999843e-02 6.595000000000000168e-03 5.582380000000000120e-01 -2.014000000000000165e-02 6.296999999999999646e-03 5.667769999999999753e-01 -8.330899999999999417e-02 1.539230000000000043e-01 -2.268719999999999903e-01 -1.071040000000000048e-01 2.143869999999999942e-01 -2.468839999999999923e-01 -8.465999999999999914e-02 1.544800000000000062e-01 -3.079330000000000123e-01 -6.509500000000000008e-02 1.161380000000000051e-01 -3.073460000000000081e-01
1.127879999999999994e-01 -1.070450000000000013e-01 -2.663039999999999852e-01 1.300119999999999887e-01 -1.474709999999999910e-01 -1.497010000000000007e-01 7.875400000000000456e-02 -1.460559999999999914e-01 2.110839999999999939e-01 8.128799999999999915e-02 -1.679690000000000072e-01 1.776760000000000006e-01 1.042339999999999933e-01 -2.013969999999999927e-01 -3.142050000000000121e-01 1.227270000000000028e-01 -1.030819999999999931e-01 -1.140580000000000066e-01 9.279900000000000648e-02 -1.694799999999999918e-01 2.160199999999999898e-01 -3.409199999999999731e-02 -1.419779999999999931e-01 1.835589999999999999e-01 1.601700000000000068e-01 -1.363729999999999942e-01 -2.182250000000000023e-01 1.105499999999999955e-01 -2.102880000000000027e-01 -1.227990000000000054e-01 3.486999999999999822e-02 -2.376199999999999979e-01 2.233549999999999980e-01 4.834399999999999809e-02 -1.316330000000000000e-01 1.929629999999999956e-01 -2.449799999999999894e-02 1.157399999999999922e-02 6.175739999999999563e-01 -1.592899999999999872e-02 1.083199999999999961e-02 5.040010000000000323e-01 -1.027509999999999951e-01 1.773210000000000064e-01 -2.340299999999999880e-01 -1.043410000000000032e-01 1.464310000000000056e-01 -2.533369999999999789e-01 -6.468699999999999450e-02 1.407470000000000110e-01 -4.067189999999999972e-01 -9.193800000000000583e-02 8.474900000000000488e-02 -3.428899999999999726e-01 -3.798499999999999793e-02 -1.126000000000000048e-03 6.474090000000000122e-01 -1.719299999999999995e-02 1.483300000000000070e-02 5.344419999999999726e-01 -1.256859999999999922e-01 1.287989999999999968e-01 -2.598940000000000139e-01 2.227799999999999919e-02 1.998040000000000094e-01 -2.508889999999999731e-01 -4.907099999999999657e-02 1.855100000000000082e-01 -2.993089999999999917e-01 -7.775999999999999579e-02 9.060300000000000298e-02 -3.638350000000000195e-01 -2.089999999999999844e-02 4.542000000000000030e-03 6.599519999999999831e-01 -1.909299999999999886e-02 4.815999999999999968e-03 5.371860000000000523e-01 -5.259799999999999892e-02 1.393520000000000036e-01 -1.861389999999999989e-01 -7.800799999999999401e-02 2.490719999999999879e-01 -2.543719999999999870e-01 -6.679200000000000415e-02 1.588249999999999940e-01 -3.058130000000000015e-01 -1.156269999999999937e-01 1.539929999999999910e-01 -3.649930000000000119e-01
1.069539999999999935e-01 -7.673699999999999966e-02 -3.910109999999999975e-01 1.300840000000000052e-01 -1.106319999999999942e-01 -8.630699999999999483e-02 1.144779999999999964e-01 -1.029530000000000028e-01 1.797459999999999891e-01 8.858499999999999708e-02 -1.739860000000000018e-01 1.428750000000000020e-01 8.206299999999999706e-02 -2.322190000000000087e-01 -4.085949999999999860e-01 1.573420000000000096e-01 -7.372700000000000087e-02 -3.976000000000000367e-03 1.492130000000000123e-01 -1.844530000000000058e-01 2.221140000000000059e-01 -9.276299999999999824e-02 -1.105690000000000006e-01 1.500309999999999977e-01 2.072060000000000013e-01 -1.260459999999999914e-01 -2.856779999999999875e-01 9.328599999999999393e-02 -2.681910000000000127e-01 -6.311100000000000043e-02 1.005299999999999944e-02 -2.813780000000000170e-01 2.120960000000000067e-01 1.260499999999999989e-02 -1.018939999999999985e-01 1.774799999999999989e-01 -2.740000000000000074e-02 1.637100000000000014e-02 7.794959999999999667e-01 -1.214499999999999955e-02 1.573700000000000099e-02 4.718539999999999957e-01 -1.117189999999999989e-01 1.438270000000000104e-01 -1.885290000000000021e-01 -1.406509999999999982e-01 1.375500000000000056e-01 -2.377509999999999901e-01 -5.492999999999999966e-02 1.164879999999999943e-01 -4.532340000000000257e-01 -9.618799999999999573e-02 4.050299999999999734e-02 -3.667850000000000277e-01 -5.407100000000000101e-02 -5.361000000000000314e-03 7.364230000000000498e-01 -8.505999999999999672e-03 1.380200000000000003e-02 5.106039999999999468e-01 -1.896509999999999863e-01 7.218199999999999616e-02 -2.418700000000000017e-01 9.419600000000000195e-02 2.421659999999999924e-01 -2.496539999999999870e-01 -1.461100000000000072e-02 2.464959999999999929e-01 -3.156959999999999766e-01 -1.199879999999999974e-01 3.650199999999999972e-02 -4.157870000000000177e-01 -2.017700000000000049e-02 3.722000000000000048e-03 7.596119999999999539e-01 -1.771199999999999858e-02 3.523999999999999789e-03 5.027730000000000254e-01 -2.190699999999999939e-02 1.230559999999999987e-01 -1.444449999999999901e-01 -4.832100000000000284e-02 2.820889999999999787e-01 -2.613389999999999880e-01 -4.886800000000000171e-02 1.628400000000000125e-01 -3.029609999999999803e-01 -1.672410000000000008e-01 1.926769999999999872e-01 -4.259439999999999893e-01