4.839979999999999838e-01 -5.109660000000000313e-01 2.639700000000000032e-02 -5.346299999999999664e-02 2.206849999999999923e-01 -2.462399999999999867e-01 -4.095200000000000229e-02 4.607700000000000129e-01 6.114849999999999453e-01 -3.775510000000000255e-01 5.646010000000000195e-01 -8.662579999999999725e-01 -1.895699999999999885e-01 -2.257899999999999838e-02 7.455399999999999527e-02 -2.892609999999999904e-01 4.538829999999999809e-01 5.362460000000000004e-01 2.437759999999999927e-01 -7.698199999999999488e-02 4.332199999999999940e-02 6.585189999999999655e-01 -9.077749999999999986e-01 -1.079389999999999933e-01 -7.727910000000000057e-01 -1.226580000000000031e-01 -1.077860000000000068e-01 -5.911429999999999740e-01 2.235350000000000115e-01 -1.155636000000000108e+00 -7.250600000000000100e-02 6.081010000000000026e-01 4.410049999999999804e-01 2.381630000000000136e-01 -5.092370000000000507e-01 -1.179222999999999910e+00 9.394099999999999673e-02 3.579499999999999904e-01 1.212650999999999923e+00 5.843000000000000277e-02 -1.058006000000000002e+00 5.482359999999999456e-01 4.476240000000000219e-01 3.835470000000000268e-01 8.408069999999999711e-01 3.281600000000000072e-01 6.352229999999999821e-01 -4.628889999999999949e-01 -1.074760000000000021e-01 6.831340000000000190e-01 -4.984859999999999847e-01 2.377660000000000051e-01 -4.607990000000000141e-01 1.400520000000000098e-01 -2.550999999999999882e-03 -2.022200000000000109e-01 1.916130000000000055e-01 -2.931139999999999857e-01 -7.202070000000000416e-01 -4.191000000000000281e-02
4.921539999999999804e-01 8.137839999999999518e-01 7.961400000000000421e-02 9.416000000000000758e-03 -1.401699999999999890e-01 2.868149999999999866e-01 2.527750000000000274e-01 -8.722839999999999483e-01 -2.686200000000000254e-01 -2.006870000000000043e-01 -1.919851999999999892e+00 -3.588729999999999976e-01 2.484240000000000059e-01 -8.353429999999999467e-01 1.110271000000000008e+00 -1.335359999999999880e-01 -1.493049999999999933e-01 7.993890000000000162e-01 -2.733999999999999764e-01 5.782100000000000017e-01 -5.742580000000000462e-01 -4.220900000000000207e-01 3.419960000000000222e-01 -1.497459999999999902e-01 -9.141599999999999726e-02 -2.499010000000000120e-01 6.606800000000000173e-02 6.588509999999999645e-01 1.621993999999999936e+00 6.529779999999999474e-01 -4.081469999999999820e-01 -1.340435000000000043e+00 -1.030660000000000048e-01 -9.206779999999999964e-01 -2.032460000000000100e-01 -4.193239999999999745e-01 4.785619999999999874e-01 4.138249999999999984e-01 2.544730000000000047e-01 -1.877099999999999880e-01 1.265600000000000058e-01 -4.297279999999999989e-01 -1.908489999999999909e-01 -6.626100000000000323e-01 -1.881102999999999970e+00 4.599489999999999967e-01 1.175289000000000028e+00 -6.216850000000000431e-01 5.565269999999999939e-01 1.314727999999999897e+00 1.882414000000000032e+00 1.543200000000000127e-01 4.006500000000000339e-02 3.602870000000000239e-01 -1.220226000000000033e+00 -1.930899999999999977e-02 -1.286210000000000131e-01 7.377599999999999714e-01 -3.399599999999999844e-02 -5.572859999999999481e-01
1.038359999999999977e-01 5.827360000000000317e-01 4.090179999999999927e-01 4.411100000000000021e-01 -1.522529999999999994e-01 3.002279999999999949e-01 5.732009999999999605e-01 2.489049999999999874e-01 8.022979999999999556e-01 5.553310000000000191e-01 7.253030000000000310e-01 2.009400000000000075e-02 1.436220000000000052e+00 1.318195000000000006e+00 3.382740000000000191e-01 -1.437110000000000054e-01 -3.981219999999999759e-01 -2.685652999999999846e+00 -4.402949999999999919e-01 1.168341999999999992e+00 1.820509999999999906e-01 1.536524999999999919e+00 -2.198060000000000014e-01 2.452660000000000118e-01 4.943620000000000236e-01 -3.830999999999999683e-02 2.845249999999999724e-01 -5.497100000000000319e-01 2.717129999999999823e-01 -1.101793999999999940e+00 1.905489999999999962e-01 -6.785849999999999937e-01 -6.699819999999999665e-01 -7.180509999999999948e-01 -2.863990000000000147e-01 -4.384699999999999709e-02 -6.633019999999999472e-01 -7.068800000000000083e-02 4.611999999999999780e-03 -1.066972999999999949e+00 5.835949999999999749e-01 -2.858499999999999930e-02 1.003894000000000064e+00 8.952400000000000357e-01 4.335280000000000244e-01 -1.277679000000000009e+00 -5.113790000000000280e-01 -1.077739000000000003e+00 -6.006289999999999685e-01 -4.164300000000000224e-01 -5.313299999999999967e-02 -1.593870000000000009e-01 -5.329800000000000093e-01 1.720618999999999899e+00 2.534199999999999994e-02 -8.578299999999999814e-01 4.605239999999999889e-01 -7.406359999999999610e-01 -1.631245999999999974e+00 4.596990000000000243e-01
8.025109999999999744e-01 5.296589999999999909e-01 -9.291779999999999484e-01 -4.941099999999999937e-01 -1.163399999999999990e-01 -4.663999999999999813e-01 9.033609999999999696e-01 -3.369300000000000073e-02 2.686499999999999999e-01 2.274349999999999983e-01 9.858100000000000196e-02 -9.734120000000000550e-01 6.029349999999999987e-01 1.033263000000000043e+00 2.136889999999999901e-01 -7.080799999999999594e-02 -9.071129999999999471e-01 -6.306129999999999791e-01 5.830929999999999724e-01 2.107200000000000045e-02 -4.490999999999999853e-02 7.100189999999999557e-01 -1.822350000000000081e-01 -7.701329999999999565e-01 5.812990000000000101e-01 -2.341110000000000135e-01 9.416820000000000190e-01 -6.371830000000000549e-01 1.609059999999999935e-01 -8.424890000000000434e-01 -7.050399999999999723e-02 -3.448840000000000239e-01 -1.619680000000000009e-01 3.815509999999999735e-01 -3.469039999999999901e-01 7.573330000000000339e-01 -9.851459999999999662e-01 1.194849999999999940e-01 -4.821759999999999935e-01 -8.050730000000000386e-01 3.509660000000000002e-01 7.040969999999999729e-01 1.972089999999999954e-01 5.377680000000000238e-01 1.396252999999999966e+00 -4.782699999999999729e-01 3.611420000000000186e-01 5.967599999999999988e-02 2.301599999999999827e-02 -5.587990000000000457e-01 9.537309999999999954e-01 -8.566279999999999450e-01 -4.453150000000000164e-01 7.636600000000000332e-02 -2.443809999999999871e-01 -4.749039999999999928e-01 -2.898809999999999998e-01 -3.703250000000000153e-01 4.314560000000000062e-01 2.196819999999999884e-01
4.724789999999999823e-01 -1.197000000000000008e-01 2.032899999999999985e-01 -7.125599999999999989e-02 -5.007299999999999945e-02 1.455100000000000005e-01 -3.395150000000000112e-01 -2.504839999999999844e-01 5.396999999999999888e-03 -4.040719999999999867e-01 -7.177759999999999696e-01 -1.182365000000000110e+00 -2.538070000000000048e-01 -5.636769999999999836e-01 6.757710000000000106e-01 -2.659219999999999917e-01 9.160639999999999894e-01 1.892800000000000038e-02 -3.458100000000000063e-02 -1.267584999999999962e+00 5.723789999999999711e-01 2.912199999999999858e-02 -1.236000000000000015e-01 -5.736800000000000233e-02 -5.022489999999999455e-01 1.833015999999999979e+00 4.497120000000000006e-01 9.306299999999999573e-01 7.528610000000000024e-01 -1.114114000000000049e+00 3.401020000000000154e-01 -1.126398000000000010e+00 -1.049247999999999958e+00 -2.125380000000000047e-01 -1.701360000000000094e-01 -3.830140000000000211e-01 1.116727999999999943e+00 -1.693176000000000014e+00 1.219819999999999932e-01 -3.213300000000000045e-01 2.807180000000000231e-01 -9.112000000000000308e-03 -2.003972000000000087e+00 3.137989999999999946e-01 1.024748999999999910e+00 1.387780999999999931e+00 7.459679999999999644e-01 -3.300850000000000173e-01 -5.246579999999999577e-01 6.620300000000000074e-01 4.937819999999999987e-01 3.089180000000000259e-01 4.054300000000000265e-02 5.327560000000000073e-01 -1.397019999999999929e-01 -3.489689999999999737e-01 -6.635299999999999532e-02 4.878399999999999959e-01 8.865750000000000020e-01 -5.259699999999999792e-02
-8.146369999999999445e-01 -5.474980000000000402e-01 -5.837500000000000328e-02 -1.185664000000000051e+00 -1.997909999999999964e-01 -1.061509999999999954e-01 -8.904130000000000100e-01 -3.080749999999999877e-01 1.906390000000000029e-01 2.915530000000000066e-01 -3.489970000000000017e-01 -4.182930000000000259e-01 -3.152179999999999982e-01 -9.505120000000000235e-01 -2.290889999999999871e-01 -5.338690000000000380e-01 1.091236000000000095e+00 2.107850000000000001e-01 1.958927000000000085e+00 -1.784449999999999925e-01 -2.769690000000000207e-01 -9.411000000000000476e-01 -5.260529999999999928e-01 8.253359999999999586e-01 -1.960121000000000002e+00 -1.516669999999999963e-01 1.093599999999999989e-01 -6.619969999999999466e-01 3.915640000000000231e-01 8.481269999999999643e-01 7.092779999999999641e-01 8.528059999999999530e-01 3.929699999999999860e-01 1.422117999999999993e+00 -2.742769999999999930e-01 2.631979999999999875e-01 6.252159999999999940e-01 -4.645549999999999957e-01 2.198200000000000154e-02 1.007085000000000008e+00 6.718180000000000263e-01 -1.227510000000000101e+00 4.003450000000000064e-01 -6.291750000000000398e-01 -4.125360000000000138e-01 1.946890000000000009e-01 7.609230000000000160e-01 -1.700629999999999920e-01 6.390730000000000022e-01 -5.562319999999999487e-01 -1.923060000000000047e-01 3.645599999999999952e-01 8.854299999999999671e-02 -2.315319999999999878e-01 -1.289244999999999974e+00 5.159500000000000197e-01 -1.162730000000000014e-01 9.794190000000000396e-01 7.624379999999999491e-01 5.766999999999999904e-01
5.049700000000000022e-02 -7.449600000000000666e-02 2.571390000000000065e-01 7.473699999999999788e-02 -1.253759999999999875e-01 2.585979999999999945e-01 8.386100000000000498e-02 -6.678499999999999714e-02 2.338020000000000098e-01 1.440600000000000040e-02 -1.086870000000000058e-01 1.866810000000000136e-01 7.556599999999999429e-02 5.756999999999999965e-03 -1.122240000000000043e-01 3.469499999999999668e-02 2.498600000000000126e-02 -7.736500000000000321e-02 5.194200000000000206e-02 5.183299999999999713e-02 -1.042069999999999941e-01 5.549599999999999672e-02 3.908000000000000015e-03 -1.063479999999999981e-01 -4.427600000000000285e-02 8.220500000000000029e-02 -5.670269999999999477e-01 6.276999999999999594e-03 4.637000000000000149e-02 -5.593019999999999659e-01 -2.378399999999999959e-02 7.630599999999999883e-02 -5.922770000000000534e-01 -2.857000000000000164e-02 1.138649999999999940e-01 -5.433639999999999581e-01 -2.561700000000000088e-02 -3.319500000000000228e-02 -9.489999999999999825e-02 -2.260399999999999909e-02 -2.035299999999999956e-02 -1.714289999999999980e-01 -2.172599999999999879e-02 -1.586900000000000116e-02 -1.204459999999999975e-01 -2.259699999999999903e-02 2.418999999999999970e-02 -2.038500000000000034e-02 -5.803400000000000225e-02 7.808999999999999969e-03 5.240409999999999791e-01 -8.428199999999999581e-02 -3.445999999999999844e-03 5.904540000000000344e-01 -8.076200000000000045e-02 2.412100000000000008e-02 5.345760000000000511e-01 -3.522499999999999937e-02 -1.314199999999999917e-02 4.839829999999999965e-01
8.087999999999999703e-03 -1.353409999999999891e-01 4.946470000000000034e-01 7.060000000000000303e-04 -1.144720000000000043e-01 4.077239999999999753e-01 -3.138699999999999823e-02 -1.615419999999999912e-01 3.933229999999999782e-01 -2.662099999999999883e-02 -1.707069999999999976e-01 4.332929999999999837e-01 -3.723499999999999727e-02 8.618099999999999372e-02 -1.728079999999999894e-01 -4.458000000000000157e-02 7.883999999999999342e-02 -1.363260000000000027e-01 -2.740899999999999934e-02 3.894100000000000339e-02 -1.688620000000000121e-01 -2.797000000000000007e-03 1.160179999999999961e-01 -1.542219999999999980e-01 -2.420699999999999935e-02 1.352990000000000026e-01 -4.777239999999999820e-01 -1.106099999999999965e-02 1.554979999999999973e-01 -4.441570000000000240e-01 3.273500000000000021e-02 1.127829999999999944e-01 -4.345470000000000166e-01 1.027100000000000062e-02 1.823829999999999896e-01 -4.411209999999999853e-01 2.043000000000000111e-03 -3.012000000000000094e-02 -1.428939999999999932e-01 1.600100000000000133e-02 -4.484699999999999798e-02 -1.352859999999999896e-01 1.616499999999999881e-02 -2.577899999999999983e-02 -9.806499999999999939e-02 5.225999999999999743e-03 -5.924700000000000105e-02 -1.194329999999999975e-01 1.530399999999999990e-02 -3.732900000000000107e-02 3.366250000000000075e-01 2.412100000000000008e-02 -3.897599999999999676e-02 2.780560000000000254e-01 5.543100000000000110e-02 -1.884200000000000111e-02 3.116070000000000229e-01 1.920499999999999985e-02 -6.874099999999999655e-02 2.701669999999999905e-01
-3.810720000000000218e-01 6.402800000000000158e-02 3.209170000000000078e-01 -3.950949999999999740e-01 9.243800000000000627e-02 2.727649999999999797e-01 -4.129519999999999857e-01 6.220200000000000035e-02 3.321790000000000020e-01 -4.003860000000000197e-01 1.788069999999999937e-01 3.192269999999999830e-01 2.703450000000000020e-01 -5.633400000000000213e-02 -1.536849999999999883e-01 2.861560000000000215e-01 -9.612300000000000011e-02 -1.704809999999999937e-01 2.685049999999999937e-01 -6.663499999999999979e-02 -1.843569999999999931e-01 2.179079999999999906e-01 -3.506800000000000195e-02 -1.140660000000000007e-01 4.381740000000000079e-01 -1.576069999999999971e-01 -4.944950000000000179e-01 4.820030000000000148e-01 -6.569300000000000139e-02 -5.556149999999999700e-01 4.017950000000000133e-01 -1.118910000000000043e-01 -4.816230000000000233e-01 3.510369999999999879e-01 -6.891400000000000303e-02 -5.479730000000000434e-01 -1.214849999999999958e-01 -4.960000000000000216e-04 -6.236400000000000277e-02 -1.331539999999999946e-01 2.329000000000000167e-02 -4.960599999999999732e-02 -1.277699999999999947e-01 4.594399999999999873e-02 -3.062099999999999891e-02 -1.105170000000000041e-01 2.041799999999999865e-02 -4.621900000000000314e-02 -1.907560000000000089e-01 7.029399999999999538e-02 4.189760000000000151e-01 -1.134939999999999977e-01 -5.799000000000000335e-03 3.920810000000000128e-01 -1.439219999999999944e-01 5.914799999999999919e-02 4.072100000000000164e-01 -1.853239999999999887e-01 4.798999999999999794e-02 4.277489999999999903e-01
6.521470000000000322e-01 6.792600000000000027e-02 4.290829999999999922e-01 1.872070000000000123e-01 1.778849999999999876e-01 9.989729999999999999e-01 -1.687569999999999903e-01 -5.962889999999999580e-01 -3.203039999999999776e-01 -1.464093000000000089e+00 2.122660000000000102e-01 1.621869000000000005e+00 1.644576000000000038e+00 7.299879999999999702e-01 -4.191000000000000281e-03 6.278599999999999459e-02 -2.173549999999999927e-01 2.655300000000000021e-02 -2.767140000000000155e-01 -6.031309999999999727e-01 -2.127920000000000089e-01 2.768209999999999837e-01 -8.540569999999999551e-01 2.127302999999999944e+00 -6.067919999999999980e-01 3.869960000000000067e-01 -1.822700000000000015e-02 8.308799999999999519e-01 -1.354543000000000053e+00 -1.588587999999999889e+00 3.205359999999999876e-01 8.569510000000000183e-01 3.939989999999999881e-01 4.519219999999999904e-01 2.873240000000000238e-01 -7.240579999999999794e-01 -2.596339999999999759e-01 3.366899999999999893e-01 -4.633079999999999976e-01 4.961619999999999919e-01 1.138549999999999951e+00 -2.780540000000000234e-01 -3.976770000000000027e-01 -2.431200000000000028e-01 7.505490000000000217e-01 5.835430000000000339e-01 4.353659999999999752e-01 -1.780480999999999980e+00 2.597700000000000009e-01 -6.140949999999999465e-01 -3.958220000000000072e-01 -1.047765999999999975e+00 1.679910000000000014e-01 -1.512360000000000093e-01 -9.341810000000000391e-01 -8.839500000000000135e-02 2.326139999999999874e-01 -6.107369999999999743e-01 -2.269480000000000108e-01 -6.438819999999999544e-01
4.037859999999999783e-01 6.796489999999999476e-01 5.194790000000000241e-01 -7.428600000000000481e-02 -2.990459999999999785e-01 2.111740000000000006e-01 -1.459292999999999951e+00 1.383479999999999988e-01 4.664200000000000013e-01 3.086760000000000059e-01 -2.972690000000000055e-01 -1.053825000000000012e+00 -8.675169999999999826e-01 -1.834799999999999973e-02 1.416373000000000104e+00 -6.062499999999999556e-01 1.121936999999999962e+00 2.062294000000000072e+00 2.091616000000000142e+00 9.546959999999999891e-01 -2.555970000000000186e-01 -9.818090000000000428e-01 -1.297034000000000020e+00 -2.419310000000000072e-01 3.148360000000000047e-01 -2.906079999999999774e-01 -3.070910000000000029e-01 1.265776999999999930e+00 -1.564794000000000018e+00 -1.208339999999999970e+00 1.569990999999999914e+00 7.358299999999999563e-02 -4.792429999999999746e-01 -9.040650000000000075e-01 4.752549999999999830e-01 -4.465100000000000180e-01 -6.070529999999999538e-01 4.765650000000000164e-01 2.320039999999999880e-01 6.522000000000000020e-03 6.728239999999999776e-01 6.290179999999999660e-01 6.717739999999999823e-01 3.848999999999999991e-03 -1.833609999999999962e-01 3.823509999999999964e-01 -5.554050000000000376e-01 -2.135482000000000102e+00 -1.202904999999999891e+00 -5.188650000000000206e-01 -1.194719999999999949e-01 -3.291399999999999881e-01 -6.209839999999999804e-01 -3.200700000000000073e-02 9.573289999999999855e-01 1.553269999999999929e+00 5.513590000000000435e-01 -9.403380000000000072e-01 -6.876240000000000130e-01 3.747380000000000155e-01
5.049700000000000022e-02 -7.449600000000000666e-02 2.571390000000000065e-01 7.473699999999999788e-02 -1.253759999999999875e-01 2.585979999999999945e-01 8.386100000000000498e-02 -6.678499999999999714e-02 2.338020000000000098e-01 1.440600000000000040e-02 -1.086870000000000058e-01 1.866810000000000136e-01 7.556599999999999429e-02 5.756999999999999965e-03 -1.122240000000000043e-01 3.469499999999999668e-02 2.498600000000000126e-02 -7.736500000000000321e-02 5.194200000000000206e-02 5.183299999999999713e-02 -1.042069999999999941e-01 5.549599999999999672e-02 3.908000000000000015e-03 -1.063479999999999981e-01 -4.427600000000000285e-02 8.220500000000000029e-02 -5.670269999999999477e-01 6.276999999999999594e-03 4.637000000000000149e-02 -5.593019999999999659e-01 -2.378399999999999959e-02 7.630599999999999883e-02 -5.922770000000000534e-01 -2.857000000000000164e-02 1.138649999999999940e-01 -5.433639999999999581e-01 -2.561700000000000088e-02 -3.319500000000000228e-02 -9.489999999999999825e-02 -2.260399999999999909e-02 -2.035299999999999956e-02 -1.714289999999999980e-01 -2.172599999999999879e-02 -1.586900000000000116e-02 -1.204459999999999975e-01 -2.259699999999999903e-02 2.418999999999999970e-02 -2.038500000000000034e-02 -5.803400000000000225e-02 7.808999999999999969e-03 5.240409999999999791e-01 -8.428199999999999581e-02 -3.445999999999999844e-03 5.904540000000000344e-01 -8.076200000000000045e-02 2.412100000000000008e-02 5.345760000000000511e-01 -3.522499999999999937e-02 -1.314199999999999917e-02 4.839829999999999965e-01
-3.810720000000000218e-01 6.402800000000000158e-02 3.209170000000000078e-01 -3.950949999999999740e-01 9.243800000000000627e-02 2.727649999999999797e-01 -4.129519999999999857e-01 6.220200000000000035e-02 3.321790000000000020e-01 -4.003860000000000197e-01 1.788069999999999937e-01 3.192269999999999830e-01 2.703450000000000020e-01 -5.633400000000000213e-02 -1.536849999999999883e-01 2.861560000000000215e-01 -9.612300000000000011e-02 -1.704809999999999937e-01 2.685049999999999937e-01 -6.663499999999999979e-02 -1.843569999999999931e-01 2.179079999999999906e-01 -3.506800000000000195e-02 -1.140660000000000007e-01 4.381740000000000079e-01 -1.576069999999999971e-01 -4.944950000000000179e-01 4.820030000000000148e-01 -6.569300000000000139e-02 -5.556149999999999700e-01 4.017950000000000133e-01 -1.118910000000000043e-01 -4.816230000000000233e-01 3.510369999999999879e-01 -6.891400000000000303e-02 -5.479730000000000434e-01 -1.214849999999999958e-01 -4.960000000000000216e-04 -6.236400000000000277e-02 -1.331539999999999946e-01 2.329000000000000167e-02 -4.960599999999999732e-02 -1.277699999999999947e-01 4.594399999999999873e-02 -3.062099999999999891e-02 -1.105170000000000041e-01 2.041799999999999865e-02 -4.621900000000000314e-02 -1.907560000000000089e-01 7.029399999999999538e-02 4.189760000000000151e-01 -1.134939999999999977e-01 -5.799000000000000335e-03 3.920810000000000128e-01 -1.439219999999999944e-01 5.914799999999999919e-02 4.072100000000000164e-01 -1.853239999999999887e-01 4.798999999999999794e-02 4.277489999999999903e-01
5.259939999999999616e-01 -2.984769999999999923e-01 2.872899999999999898e-01 9.078600000000000558e-02 -1.288189999999999891e-01 -7.452199999999999935e-01 3.705800000000000066e-02 1.111650999999999945e+00 -1.218933000000000044e+00 4.970789999999999931e-01 5.780500000000000221e-02 -1.143539999999999973e-01 8.735319999999999752e-01 9.657769999999999966e-01 1.780579999999999941e-01 -1.091099999999999987e-01 -6.114049999999999763e-01 -7.080999999999999621e-03 -8.973109999999999697e-01 6.657000000000000417e-02 -2.897179999999999755e-01 -6.170500000000000290e-02 -8.511819999999999942e-01 -1.030262000000000011e+00 -5.807700000000000085e-01 -9.397889999999999855e-01 -6.031279999999999974e-01 -6.179999999999999730e-03 9.730210000000000248e-01 -1.227300000000000058e-01 2.792299999999999990e-02 -1.159043000000000045e+00 9.904300000000000326e-01 -4.901969999999999938e-01 9.309229999999999450e-01 1.238500000000000018e-01 1.113974000000000020e+00 7.704099999999999837e-02 9.494040000000000257e-01 -2.527429999999999954e-01 2.554500000000000173e-02 7.760350000000000303e-01 -7.453899999999999415e-02 -6.357110000000000261e-01 5.365899999999999836e-02 -4.881010000000000071e-01 2.699480000000000213e-01 1.566790000000000127e-01 -5.159559999999999702e-01 4.027049999999999796e-01 1.913700000000000123e-02 7.891800000000000204e-02 8.313299999999999856e-02 1.115817999999999977e+00 4.193500000000000005e-01 -3.263280000000000070e-01 4.833120000000000194e-01 -1.880020000000000024e-01 -1.336500000000000014e-02 -1.002245999999999970e+00
8.087999999999999703e-03 -1.353409999999999891e-01 4.946470000000000034e-01 7.060000000000000303e-04 -1.144720000000000043e-01 4.077239999999999753e-01 -3.138699999999999823e-02 -1.615419999999999912e-01 3.933229999999999782e-01 -2.662099999999999883e-02 -1.707069999999999976e-01 4.332929999999999837e-01 -3.723499999999999727e-02 8.618099999999999372e-02 -1.728079999999999894e-01 -4.458000000000000157e-02 7.883999999999999342e-02 -1.363260000000000027e-01 -2.740899999999999934e-02 3.894100000000000339e-02 -1.688620000000000121e-01 -2.797000000000000007e-03 1.160179999999999961e-01 -1.542219999999999980e-01 -2.420699999999999935e-02 1.352990000000000026e-01 -4.777239999999999820e-01 -1.106099999999999965e-02 1.554979999999999973e-01 -4.441570000000000240e-01 3.273500000000000021e-02 1.127829999999999944e-01 -4.345470000000000166e-01 1.027100000000000062e-02 1.823829999999999896e-01 -4.411209999999999853e-01 2.043000000000000111e-03 -3.012000000000000094e-02 -1.428939999999999932e-01 1.600100000000000133e-02 -4.484699999999999798e-02 -1.352859999999999896e-01 1.616499999999999881e-02 -2.577899999999999983e-02 -9.806499999999999939e-02 5.225999999999999743e-03 -5.924700000000000105e-02 -1.194329999999999975e-01 1.530399999999999990e-02 -3.732900000000000107e-02 3.366250000000000075e-01 2.412100000000000008e-02 -3.897599999999999676e-02 2.780560000000000254e-01 5.543100000000000110e-02 -1.884200000000000111e-02 3.116070000000000229e-01 1.920499999999999985e-02 -6.874099999999999655e-02 2.701669999999999905e-01
1.621920999999999946e+00 1.034053000000000111e+00 5.442949999999999733e-01 -1.050712000000000090e+00 5.222599999999999465e-01 8.170030000000000348e-01 -4.739949999999999997e-01 3.693279999999999896e-01 -2.502499999999999725e-01 3.130140000000000144e-01 9.314959999999999907e-01 2.755000000000000226e-01 5.271869999999999612e-01 3.510130000000000194e-01 2.350629999999999942e-01 1.022659999999999958e-01 6.536530000000000395e-01 -7.288559999999999484e-01 -2.108603000000000005e+00 -4.988529999999999909e-01 2.069000000000000006e-02 1.254113999999999951e+00 -2.252383000000000024e+00 2.880000000000000181e-03 -6.477239999999999664e-01 -9.854370000000000074e-01 -8.685869999999999980e-01 6.578960000000000363e-01 -8.216040000000000010e-01 -2.913680000000000159e-01 1.413307000000000091e+00 -9.342519999999999714e-01 1.905700000000000102e-02 -6.067110000000000003e-01 4.923060000000000214e-01 -2.902529999999999832e-01 -5.708940000000000126e-01 -4.001600000000000296e-02 6.575790000000000246e-01 2.959519999999999929e-01 7.724269999999999747e-01 -3.730269999999999975e-01 -1.092090000000000005e-01 -9.024799999999999489e-02 9.034499999999999476e-02 1.024893000000000054e+00 -4.592600000000000016e-01 7.440919999999999757e-01 1.457209999999999894e-01 -3.889960000000000084e-01 -9.481599999999999751e-02 3.252349999999999963e-01 -1.735599999999999921e-01 -2.444389999999999896e-01 -1.191184999999999938e+00 3.098119999999999763e-01 -7.539329999999999643e-01 -9.224750000000000449e-01 1.208261000000000029e+00 4.890249999999999875e-01
-1.274129999999999985e-01 -6.319939999999999447e-01 -3.240339999999999887e-01 4.973679999999999768e-01 -1.518539999999999890e-01 -7.024500000000000188e-02 -1.251900000000000061e-02 -9.079639999999999933e-01 -1.591957999999999984e+00 -1.304696999999999996e+00 8.965720000000000356e-01 4.921530000000000071e-01 8.564800000000000191e-01 -1.349619999999999986e-01 -3.481029999999999958e-01 -8.882679999999999465e-01 9.538689999999999669e-01 -7.510860000000000314e-01 1.186612999999999918e+00 -1.030653999999999959e+00 1.993071000000000037e+00 1.677732999999999919e+00 -1.068305000000000060e+00 1.323792999999999997e+00 -9.842999999999999319e-03 -5.088359999999999550e-01 -2.669440000000000146e-01 2.246747000000000050e+00 -9.206170000000000186e-01 -8.998159999999999492e-01 -7.075700000000000045e-02 -3.569979999999999820e-01 7.299689999999999790e-01 -1.214458999999999955e+00 1.326567999999999969e+00 -6.123459999999999459e-01 -2.204255999999999993e+00 1.609914999999999985e+00 -2.236901000000000028e+00 -1.005533999999999928e+00 1.331642999999999910e+00 2.098909999999999942e-01 2.889639999999999986e-01 3.633440000000000003e-01 4.967940000000000134e-01 2.767809999999999993e-01 1.117009999999999947e-01 6.088829999999999520e-01 -8.119060000000000166e-01 1.822010000000000018e-01 2.470950000000000091e-01 7.390309999999999935e-01 6.931600000000000261e-02 -7.379299999999999748e-02 1.128692000000000029e+00 -8.805169999999999941e-01 2.051169999999999938e-01 -1.248755000000000059e+00 -2.524279999999999857e-01 8.684589999999999810e-01
-1.338699999999999890e-01 1.154624000000000095e+00 4.873700000000000254e-01 -4.531080000000000108e-01 -6.919359999999999955e-01 1.902560000000000084e-01 -2.232409999999999950e-01 4.202710000000000057e-01 1.375000000000000007e-02 3.145279999999999743e-01 -7.364610000000000323e-01 -3.860279999999999823e-01 -2.479250000000000065e-01 -2.779150000000000231e-01 7.876429999999999820e-01 4.357079999999999842e-01 9.129669999999999730e-01 -2.362160000000000093e-01 3.246180000000000176e-01 1.525880000000000014e-01 -4.366410000000000013e-01 9.195999999999999314e-03 1.902169999999999972e-01 -2.679840000000000000e-01 -2.734210000000000251e-01 2.812399999999999969e-02 -7.230419999999999625e-01 1.204452999999999996e+00 -6.246329999999999938e-01 3.314880000000000049e-01 8.076719999999999455e-01 9.110000000000000042e-02 -3.535470000000000002e-01 -1.383709999999999996e+00 -5.537959999999999550e-01 -4.620500000000000301e-02 5.788990000000000524e-01 4.450930000000000164e-01 6.578580000000000538e-01 3.128600000000000131e-02 5.340310000000000334e-01 4.961499999999999799e-01 -7.122929999999999540e-01 -9.435430000000000206e-01 1.107250000000000040e-01 7.283599999999999797e-02 -4.199530000000000207e-01 -1.063361999999999918e+00 -7.438609999999999944e-01 -3.617989999999999817e-01 -4.193000000000000060e-01 -1.337160000000000015e-01 -7.751289999999999569e-01 3.047860000000000014e-01 8.033989999999999743e-01 9.773880000000000345e-01 2.265890000000000126e-01 -2.774499999999999744e-01 4.787609999999999921e-01 3.257099999999999995e-01
