8.549230184000000676e+00 0.000000000000000000e+00 0.000000000000000000e+00 -2.735226992999999940e+00 7.235346673999999645e+00 0.000000000000000000e+00 0.000000000000000000e+00 0.000000000000000000e+00 2.833627999999999858e+01
7.346470330999999909e+00 0.000000000000000000e+00 0.000000000000000000e+00 2.427741226999999835e+00 9.608532868999999366e+00 0.000000000000000000e+00 0.000000000000000000e+00 0.000000000000000000e+00 2.833627999999999858e+01
7.708650090999999982e+00 0.000000000000000000e+00 0.000000000000000000e+00 2.469913607000000066e+00 9.775443038000000584e+00 0.000000000000000000e+00 0.000000000000000000e+00 0.000000000000000000e+00 2.833627999999999858e+01
7.403417561000000369e+00 0.000000000000000000e+00 0.000000000000000000e+00 2.499365241000000015e+00 9.892006942000000080e+00 0.000000000000000000e+00 0.000000000000000000e+00 0.000000000000000000e+00 2.833627999999999858e+01
7.269725479999999962e+00 0.000000000000000000e+00 0.000000000000000000e+00 2.394486534999999972e+00 9.476917196000000487e+00 0.000000000000000000e+00 0.000000000000000000e+00 0.000000000000000000e+00 2.833627999999999858e+01
7.324559825999999774e+00 0.000000000000000000e+00 0.000000000000000000e+00 -3.742649500999999823e+00 9.822117444999999947e+00 0.000000000000000000e+00 0.000000000000000000e+00 0.000000000000000000e+00 2.833627999999999858e+01
9.950809747999999288e+00 0.000000000000000000e+00 0.000000000000000000e+00 -2.634846233000000204e+00 7.087751103999999636e+00 0.000000000000000000e+00 0.000000000000000000e+00 0.000000000000000000e+00 2.873933999999999855e+01
7.809672337000000297e+00 0.000000000000000000e+00 0.000000000000000000e+00 -2.734777799999999814e+00 7.234158447000000436e+00 0.000000000000000000e+00 0.000000000000000000e+00 0.000000000000000000e+00 2.833627999999999858e+01
1.551770201599999943e+01 0.000000000000000000e+00 0.000000000000000000e+00 -2.396456382999999857e+00 6.446481076000000421e+00 0.000000000000000000e+00 0.000000000000000000e+00 0.000000000000000000e+00 2.873933999999999855e+01
6.752508460999999684e+00 0.000000000000000000e+00 0.000000000000000000e+00 2.584834154000000161e+00 1.023027646100000077e+01 0.000000000000000000e+00 0.000000000000000000e+00 0.000000000000000000e+00 2.833627999999999858e+01
7.040438151000000033e+00 0.000000000000000000e+00 0.000000000000000000e+00 2.376698215999999864e+00 9.406514446999999279e+00 0.000000000000000000e+00 0.000000000000000000e+00 0.000000000000000000e+00 2.833627999999999858e+01
6.753009311999999653e+00 0.000000000000000000e+00 0.000000000000000000e+00 2.689539710000000028e+00 1.064468091500000035e+01 0.000000000000000000e+00 0.000000000000000000e+00 0.000000000000000000e+00 2.833627999999999858e+01
1.204685488099999979e+01 0.000000000000000000e+00 0.000000000000000000e+00 -2.487567550000000072e+00 6.691570624999999772e+00 0.000000000000000000e+00 0.000000000000000000e+00 0.000000000000000000e+00 2.873933999999999855e+01
7.788260389000000394e+00 0.000000000000000000e+00 0.000000000000000000e+00 4.350781483999999644e+00 7.535774636000000193e+00 0.000000000000000000e+00 0.000000000000000000e+00 0.000000000000000000e+00 2.833627999999999858e+01
1.346236177099999942e+01 0.000000000000000000e+00 0.000000000000000000e+00 -2.457932587999999807e+00 6.611852408999999930e+00 0.000000000000000000e+00 0.000000000000000000e+00 0.000000000000000000e+00 2.873933999999999855e+01
7.532245467000000083e+00 0.000000000000000000e+00 0.000000000000000000e+00 -2.466139507999999925e+00 6.523544236000000218e+00 0.000000000000000000e+00 0.000000000000000000e+00 0.000000000000000000e+00 2.833627999999999858e+01
6.477521796999999637e+00 0.000000000000000000e+00 0.000000000000000000e+00 2.655925523000000066e+00 1.051164242699999996e+01 0.000000000000000000e+00 0.000000000000000000e+00 0.000000000000000000e+00 2.833627999999999858e+01
1.874390140699999918e+01 0.000000000000000000e+00 0.000000000000000000e+00 -2.243487785000000123e+00 6.034994690000000439e+00 0.000000000000000000e+00 0.000000000000000000e+00 0.000000000000000000e+00 2.873933999999999855e+01
6.723814431000000091e+00 0.000000000000000000e+00 0.000000000000000000e+00 2.390789385999999794e+00 9.462284587999999275e+00 0.000000000000000000e+00 0.000000000000000000e+00 0.000000000000000000e+00 2.833627999999999858e+01
7.037854498999999819e+00 0.000000000000000000e+00 0.000000000000000000e+00 2.795518722000000178e+00 1.106412546299999988e+01 0.000000000000000000e+00 0.000000000000000000e+00 0.000000000000000000e+00 2.833627999999999858e+01
7.429823260000000040e+00 0.000000000000000000e+00 0.000000000000000000e+00 -3.759329195999999929e+00 9.865891229000000706e+00 0.000000000000000000e+00 0.000000000000000000e+00 0.000000000000000000e+00 2.833627999999999858e+01
1.527115557900000020e+01 0.000000000000000000e+00 0.000000000000000000e+00 -2.451935452999999931e+00 6.595720081999999707e+00 0.000000000000000000e+00 0.000000000000000000e+00 0.000000000000000000e+00 2.873933999999999855e+01
7.189782157999999868e+00 0.000000000000000000e+00 0.000000000000000000e+00 2.599320753999999845e+00 1.028761163899999964e+01 0.000000000000000000e+00 0.000000000000000000e+00 0.000000000000000000e+00 2.833627999999999858e+01
7.342843039999999988e+00 0.000000000000000000e+00 0.000000000000000000e+00 2.558743007999999985e+00 1.012701272199999991e+01 0.000000000000000000e+00 0.000000000000000000e+00 0.000000000000000000e+00 2.833627999999999858e+01
1.080665875999999948e+01 0.000000000000000000e+00 0.000000000000000000e+00 -2.585481220000000135e+00 6.954958943000000282e+00 0.000000000000000000e+00 0.000000000000000000e+00 0.000000000000000000e+00 2.873933999999999855e+01
1.532581773000000069e+01 0.000000000000000000e+00 0.000000000000000000e+00 -2.429382561999999801e+00 6.535052680999999808e+00 0.000000000000000000e+00 0.000000000000000000e+00 0.000000000000000000e+00 2.873933999999999855e+01
6.869399704000000106e+00 0.000000000000000000e+00 0.000000000000000000e+00 2.913523343000000043e+00 1.153116505700000083e+01 0.000000000000000000e+00 0.000000000000000000e+00 0.000000000000000000e+00 2.833627999999999858e+01
2.045179888999999918e+01 0.000000000000000000e+00 0.000000000000000000e+00 -2.338169308999999974e+00 6.289688518000000172e+00 0.000000000000000000e+00 0.000000000000000000e+00 0.000000000000000000e+00 2.873933999999999855e+01
8.162206792999999294e+00 0.000000000000000000e+00 0.000000000000000000e+00 -2.791201893000000211e+00 7.383414022000000188e+00 0.000000000000000000e+00 0.000000000000000000e+00 0.000000000000000000e+00 2.833627999999999858e+01
8.179203328999999911e+00 0.000000000000000000e+00 0.000000000000000000e+00 4.368607284000000313e+00 7.566649309999999851e+00 0.000000000000000000e+00 0.000000000000000000e+00 0.000000000000000000e+00 2.873933999999999855e+01
7.451047599999999882e+00 0.000000000000000000e+00 0.000000000000000000e+00 2.673825422999999812e+00 1.058248678900000073e+01 0.000000000000000000e+00 0.000000000000000000e+00 0.000000000000000000e+00 2.833627999999999858e+01
7.448551056000000337e+00 0.000000000000000000e+00 0.000000000000000000e+00 2.484459018999999991e+00 9.833010982999999428e+00 0.000000000000000000e+00 0.000000000000000000e+00 0.000000000000000000e+00 2.833627999999999858e+01
7.340990176000000034e+00 0.000000000000000000e+00 0.000000000000000000e+00 2.646489412000000208e+00 1.047429611499999957e+01 0.000000000000000000e+00 0.000000000000000000e+00 0.000000000000000000e+00 2.833627999999999858e+01
1.478283186900000068e+01 0.000000000000000000e+00 0.000000000000000000e+00 -2.234225288999999837e+00 6.010078523999999867e+00 0.000000000000000000e+00 0.000000000000000000e+00 0.000000000000000000e+00 2.873933999999999855e+01
8.610129117999999693e+00 0.000000000000000000e+00 0.000000000000000000e+00 -2.993443067999999929e+00 8.052378598000000665e+00 0.000000000000000000e+00 0.000000000000000000e+00 0.000000000000000000e+00 2.873933999999999855e+01
6.853528458999999629e+00 0.000000000000000000e+00 0.000000000000000000e+00 2.509743265000000001e+00 9.933081163000000657e+00 0.000000000000000000e+00 0.000000000000000000e+00 0.000000000000000000e+00 2.833627999999999858e+01
6.896781468000000359e+00 0.000000000000000000e+00 0.000000000000000000e+00 2.808020539999999787e+00 1.111360525299999935e+01 0.000000000000000000e+00 0.000000000000000000e+00 0.000000000000000000e+00 2.833627999999999858e+01
1.381203369099999989e+01 0.000000000000000000e+00 0.000000000000000000e+00 -2.469855220999999990e+00 6.643924357999999586e+00 0.000000000000000000e+00 0.000000000000000000e+00 0.000000000000000000e+00 2.873933999999999855e+01
8.164244270999999387e+00 0.000000000000000000e+00 0.000000000000000000e+00 -2.545131907000000027e+00 6.732498517999999876e+00 0.000000000000000000e+00 0.000000000000000000e+00 0.000000000000000000e+00 2.833627999999999858e+01
7.181576405000000385e+00 0.000000000000000000e+00 0.000000000000000000e+00 2.597922104999999871e+00 1.028207605499999922e+01 0.000000000000000000e+00 0.000000000000000000e+00 0.000000000000000000e+00 2.833627999999999858e+01
7.221200482999999615e+00 0.000000000000000000e+00 0.000000000000000000e+00 2.677936830999999795e+00 1.059875895300000082e+01 0.000000000000000000e+00 0.000000000000000000e+00 0.000000000000000000e+00 2.833627999999999858e+01
8.339703888000000731e+00 0.000000000000000000e+00 0.000000000000000000e+00 4.243173528999999888e+00 7.349391686999999784e+00 0.000000000000000000e+00 0.000000000000000000e+00 0.000000000000000000e+00 2.873933999999999855e+01
8.472341570999999405e+00 0.000000000000000000e+00 0.000000000000000000e+00 4.057555782999999749e+00 7.027892338000000017e+00 0.000000000000000000e+00 0.000000000000000000e+00 0.000000000000000000e+00 2.873933999999999855e+01
1.488955902700000067e+01 0.000000000000000000e+00 0.000000000000000000e+00 -2.529860674000000031e+00 6.805339362999999864e+00 0.000000000000000000e+00 0.000000000000000000e+00 0.000000000000000000e+00 2.873933999999999855e+01
7.267805225000000036e+00 0.000000000000000000e+00 0.000000000000000000e+00 2.469781085000000154e+00 9.774918539999999822e+00 0.000000000000000000e+00 0.000000000000000000e+00 0.000000000000000000e+00 2.833627999999999858e+01
7.016281218999999680e+00 0.000000000000000000e+00 0.000000000000000000e+00 2.705838766999999923e+00 1.070918944800000006e+01 0.000000000000000000e+00 0.000000000000000000e+00 0.000000000000000000e+00 2.833627999999999858e+01
7.861691002999999789e+00 0.000000000000000000e+00 0.000000000000000000e+00 -2.779964785999999854e+00 7.353689115999999970e+00 0.000000000000000000e+00 0.000000000000000000e+00 0.000000000000000000e+00 2.833627999999999858e+01
7.190574080000000201e+00 0.000000000000000000e+00 0.000000000000000000e+00 2.445039165999999931e+00 9.676994785999999849e+00 0.000000000000000000e+00 0.000000000000000000e+00 0.000000000000000000e+00 2.833627999999999858e+01
1.475892141099999932e+01 0.000000000000000000e+00 0.000000000000000000e+00 -2.434312471000000144e+00 6.548314163999999771e+00 0.000000000000000000e+00 0.000000000000000000e+00 0.000000000000000000e+00 2.873933999999999855e+01
1.229649756300000085e+01 0.000000000000000000e+00 0.000000000000000000e+00 -2.740842468999999948e+00 7.372881570999999745e+00 0.000000000000000000e+00 0.000000000000000000e+00 0.000000000000000000e+00 2.873933999999999855e+01
