3.273870000000000058e+00 3.653399999999999981e+00 3.240250000000000075e+00 8.238690000000000069e+00 2.426099999999999923e-01 3.840790000000000148e+00 -1.245030000000000081e+00 3.684029999999999916e+00 3.136740000000000084e+00 9.662899999999999823e-01 7.101359999999999673e+00 4.059709999999999930e+00 4.740639999999999965e+00 5.015199999999999658e-01 1.048279999999999923e+01 4.937330000000000219e+00 2.536540000000000017e+00 6.393060000000000187e+00 3.669049999999999923e+00 6.379550000000000054e+00 8.082119999999999749e+00 3.576039999999999885e+00 3.752689999999999859e+00 1.011749999999999972e+01 9.634099999999999886e-01 2.943740000000000023e+00 1.982739999999999947e+00 3.425759999999999916e+00 6.261890000000000178e+00 2.775689999999999991e+00 5.213599999999999568e+00 2.560029999999999806e+00 2.066980000000000040e+00 -1.099099999999999966e+00 6.609569999999999723e+00 2.273480000000000167e+00 7.259129999999999860e+00 2.468269999999999964e+00 5.477190000000000225e+00 1.404719999999999969e+00 7.223799999999999777e+00 6.612829999999999764e+00 2.472160000000000135e+00 2.970800000000000107e+00 5.496039999999999814e+00 5.880519999999999747e+00 5.842810000000000059e+00 5.952759999999999607e+00 6.584909999999999819e+00 1.558319999999999927e+00 9.160420000000000229e+00 1.635129999999999972e+00 5.413359999999999950e+00 1.027839999999999954e+01 3.958089999999999886e+00 2.423360000000000181e+00 1.212669999999999959e+01 5.366200000000000081e+00 4.475660000000000416e+00 8.341979999999999507e+00
1.545539999999999914e+00 2.490270000000000206e+00 3.605869999999999909e+00 3.866200000000000081e+00 8.548980000000000246e+00 5.058270000000000266e+00 3.647339999999999804e+00 5.343549999999999578e+00 3.536989999999999856e+00 7.466700000000000337e+00 9.112489999999999313e+00 4.460460000000000313e+00 2.631629999999999914e+00 1.732550000000000034e+00 7.615450000000000053e+00 8.383860000000000312e+00 5.537060000000000315e+00 9.132960000000000633e+00 5.990649999999999586e+00 3.128589999999999982e+00 6.305150000000000254e+00 4.957029999999999603e+00 5.593200000000000394e+00 8.631970000000000809e+00 2.602949999999999875e+00 9.651999999999999469e-02 3.100950000000000095e+00 1.864009999999999945e+00 7.082810000000000272e+00 5.031109999999999971e+00 6.369200000000000195e+00 2.193239999999999856e+00 3.737579999999999902e+00 2.214640000000000164e+00 4.071460000000000079e+00 1.787879999999999914e+00 3.204870000000000108e+00 3.264310000000000045e+00 5.580669999999999575e+00 7.130969999999999587e+00 9.492409999999999570e+00 7.451050000000000395e+00 5.608939999999999593e+00 6.437009999999999899e+00 4.424500000000000099e+00 5.376999999999999558e-01 4.605699999999999794e-01 7.021869999999999834e+00 3.395729999999999915e+00 3.284650000000000070e+00 9.637570000000000192e+00 3.033999999999999808e+00 7.155520000000000103e+00 9.037950000000000372e+00 7.485970000000000013e+00 5.449360000000000426e+00 6.793059999999999654e+00 6.312100000000000044e+00 4.607779999999999987e+00 1.043369999999999997e+01
3.629189999999999916e+00 2.167089999999999961e+00 3.249779999999999891e+00 4.082510000000000083e+00 9.354919999999999902e+00 6.052170000000000272e+00 1.740410000000000013e+00 5.133020000000000138e+00 4.309269999999999712e+00 7.919570000000000221e+00 9.298700000000000188e+00 3.318200000000000038e+00 9.926899999999999613e-01 2.648810000000000109e+00 7.833910000000000373e+00 2.143429999999999946e+00 5.955000000000000071e+00 8.107300000000000395e+00 5.050440000000000040e+00 2.652509999999999923e+00 7.638289999999999580e+00 6.189110000000000333e+00 6.084469999999999601e+00 8.598019999999999996e+00 4.990070000000000228e+00 8.999180000000000845e+00 3.522889999999999855e+00 2.266690000000000094e+00 7.636339999999999684e+00 3.108610000000000095e+00 5.891619999999999635e+00 2.165540000000000020e+00 2.076540000000000052e+00 1.715449999999999919e+00 3.623069999999999791e+00 2.324600000000000222e+00 4.009369999999999656e+00 3.902680000000000149e+00 5.483509999999999884e+00 3.959060000000000024e+00 4.650000000000000244e-01 6.528100000000000236e+00 7.899219999999999686e+00 4.747040000000000148e+00 6.814700000000000202e+00 7.352579999999999671e+00 2.897100000000000231e-01 7.517920000000000158e+00 2.885609999999999786e+00 3.727580000000000116e+00 9.344020000000000437e+00 4.313790000000000013e+00 6.842990000000000350e+00 6.915530000000000399e+00 6.590489999999999959e+00 3.050879999999999814e+00 9.697879999999999612e+00 8.482950000000000657e+00 7.495890000000000164e+00 9.598729999999999762e+00
6.666140000000000398e+00 1.695990000000000109e+00 3.200559999999999850e+00 2.680089999999999861e+00 8.119490000000000762e+00 2.968230000000000146e+00 7.450590000000000046e+00 5.744760000000000311e+00 4.944239999999999746e+00 2.853959999999999830e+00 6.297199999999999465e-01 4.421350000000000335e+00 2.177740000000000009e+00 3.223360000000000003e+00 6.728329999999999700e+00 4.611239999999999561e+00 3.350249999999999950e+00 1.082399999999999984e+01 4.269910000000000316e+00 4.616150000000000198e+00 3.428910000000000124e+00 8.350199999999999845e-01 3.022229999999999972e+00 1.074929999999999986e+01 1.636360000000000037e+00 6.512400000000000411e-01 2.003829999999999778e+00 7.707629999999999981e+00 9.027889999999999304e+00 4.231889999999999930e+00 5.988509999999999778e+00 3.655219999999999914e+00 1.794049999999999923e+00 2.170949999999999935e+00 5.849370000000000402e+00 2.121199999999999974e+00 1.788559999999999928e+00 5.837139999999999773e+00 6.684999999999999609e+00 4.566760000000000375e+00 2.429879999999999818e+00 5.747460000000000235e+00 5.034589999999999677e+00 6.966029999999999944e+00 4.336470000000000269e+00 5.308699999999999530e-01 1.640840000000000076e+00 5.362149999999999750e+00 6.429990000000000094e+00 1.409620000000000095e+00 1.136890000000000001e+01 6.683869999999999756e+00 5.038820000000000299e+00 1.051079999999999970e+01 2.762519999999999865e+00 2.153739999999999988e+00 9.112989999999999924e+00 2.466720000000000024e+00 4.139300000000000423e+00 1.233680000000000021e+01
3.116229999999999833e+00 2.051070000000000171e+00 3.178780000000000161e+00 4.864499999999999602e+00 8.371019999999999683e+00 6.134199999999999875e+00 1.500520000000000076e+00 5.114419999999999966e+00 3.920780000000000154e+00 7.384039999999999715e+00 8.925850000000000506e+00 3.984249999999999847e+00 1.220089999999999897e+00 2.484529999999999905e+00 9.652179999999999538e+00 8.427920000000000300e+00 5.708470000000000155e+00 8.577310000000000656e+00 6.243970000000000020e+00 2.406070000000000153e+00 5.304059999999999775e+00 4.854409999999999670e+00 5.793249999999999567e+00 9.020509999999999806e+00 4.718149999999999622e+00 9.129960000000000520e+00 3.821439999999999948e+00 1.954890000000000017e+00 7.345229999999999926e+00 3.394169999999999909e+00 5.543079999999999785e+00 1.587760000000000060e+00 2.453850000000000087e+00 1.215810000000000057e+00 3.189659999999999940e+00 2.085170000000000190e+00 3.923849999999999838e+00 3.508129999999999971e+00 5.204290000000000305e+00 7.429050000000000153e+00 9.462030000000000385e+00 6.595970000000000333e+00 6.992589999999999861e+00 5.114309999999999690e+00 6.148150000000000226e+00 1.384910000000000085e+00 1.468050000000000077e+00 6.831550000000000011e+00 3.039649999999999963e+00 4.459080000000000155e+00 1.005320000000000036e+01 3.220849999999999991e+00 6.526080000000000325e+00 7.199180000000000135e+00 6.023119999999999585e+00 3.289109999999999978e+00 8.776780000000000470e+00 6.787069999999999936e+00 7.351670000000000371e+00 9.402089999999999392e+00
4.505799999999999805e+00 3.072509999999999852e+00 3.093069999999999986e+00 -1.751800000000000024e-01 9.326700000000000657e+00 3.344450000000000145e+00 1.674449999999999994e+00 4.532899999999999707e+00 4.388160000000000061e+00 2.074000000000000149e-02 1.079699999999999965e-01 4.758460000000000356e+00 1.813500000000000112e-01 2.890299999999999869e+00 7.524329999999999963e+00 1.154169999999999918e+00 6.029490000000000016e+00 9.228320000000000078e+00 4.137850000000000250e+00 1.005600000000000049e+00 7.396709999999999674e+00 4.670819999999999972e+00 5.596309999999999896e+00 8.517899999999999139e+00 4.536019999999999719e+00 9.538499999999999757e-01 1.636130000000000084e+00 -2.396749999999999936e+00 8.209049999999999514e+00 3.527600000000000069e+00 -3.318800000000000083e-01 2.692379999999999995e+00 3.682420000000000027e+00 3.492090000000000138e+00 5.233979999999999855e+00 2.556859999999999911e+00 3.792450000000000099e+00 3.308219999999999938e+00 5.715349999999999930e+00 1.387680000000000025e+00 8.480710000000000193e+00 5.225769999999999804e+00 5.847000000000000114e-02 5.309750000000000192e+00 6.811379999999999768e+00 1.175680000000000058e+00 2.791500000000000092e-01 7.086319999999999730e+00 2.617900000000000116e+00 4.111839999999999939e+00 9.380879999999999441e+00 2.972589999999999844e+00 7.670550000000000423e+00 8.710129999999999484e+00 5.575490000000000279e+00 2.397839999999999971e+00 9.150600000000000733e+00 -9.932499999999999662e-01 6.176020000000000287e+00 1.069359999999999999e+01
1.064219999999999944e+00 4.054800000000000071e-01 3.898800000000000043e+00 1.151270000000000016e+00 4.232949999999999768e+00 4.228559999999999874e+00 3.089049999999999851e+00 7.016250000000000320e+00 2.924840000000000106e+00 7.122980000000000089e+00 2.982650000000000023e+00 5.194280000000000008e+00 8.189289999999999736e+00 3.249070000000000125e+00 9.179169999999999163e+00 5.917740000000000222e+00 3.230399999999999938e-01 8.036780000000000257e+00 2.270700000000000163e+00 2.983010000000000161e+00 8.217990000000000350e+00 -1.586090000000000000e+00 6.566950000000000287e+00 7.574950000000000294e+00 3.874530000000000030e+00 4.688740000000000130e+00 4.118949999999999889e+00 2.492600000000000093e-01 2.665500000000000203e+00 2.566219999999999946e+00 2.565999999999999948e-01 6.494629999999999903e+00 2.617480000000000029e+00 6.011140000000000150e+00 2.391750000000000043e+00 2.854350000000000165e+00 3.289289999999999825e+00 7.800899999999999501e-01 6.796330000000000204e+00 6.774259999999999948e+00 6.118260000000000254e+00 4.981279999999999930e+00 7.914930000000000021e+00 1.544370000000000021e+00 7.120040000000000369e+00 -1.043400000000000022e-01 4.264770000000000394e+00 6.601239999999999775e+00 6.327679999999999971e+00 1.839900000000000091e+00 1.033649999999999913e+01 -1.772799999999999931e+00 5.661279999999999646e+00 9.851879999999999526e+00 6.268000000000000238e-01 2.336770000000000014e+00 9.880570000000000519e+00 3.971249999999999947e+00 4.806060000000000443e+00 8.808339999999999392e+00
1.325309999999999988e+00 4.773030000000000328e+00 2.094019999999999992e+00 2.735699999999999799e-01 8.436599999999999655e-01 5.125899999999999679e+00 5.188950000000000173e+00 3.517860000000000209e+00 2.811809999999999921e+00 1.966749999999999998e+00 1.636789999999999967e+00 2.192279999999999784e+00 2.187990000000000101e+00 6.458770000000000344e+00 1.116990000000000016e+01 4.117189999999999905e+00 2.042609999999999815e+00 5.976239999999999775e+00 5.403599999999999959e+00 5.928300000000000125e+00 8.491690000000000182e+00 3.651279999999999859e+00 3.482819999999999805e+00 1.080119999999999969e+01 -5.748999999999999666e-01 3.662170000000000147e+00 8.614199999999999635e-01 1.397929999999999895e+00 7.221379999999999910e+00 2.885260000000000158e+00 3.187190000000000190e+00 3.328879999999999839e+00 5.788200000000000012e-01 -2.595990000000000020e+00 6.909810000000000230e+00 2.830680000000000085e+00 6.266740000000000421e+00 3.209999999999999964e+00 5.378459999999999575e+00 3.620649999999999924e+00 6.779670000000000307e+00 6.612890000000000157e+00 1.897140000000000049e+00 2.985170000000000101e+00 4.648869999999999614e+00 1.923759999999999915e+00 4.398400000000000087e-01 7.362720000000000375e+00 5.097690000000000055e+00 6.368570000000000064e+00 1.114489999999999981e+01 1.313520000000000021e+00 4.175390000000000157e+00 1.037320000000000064e+01 4.316449999999999676e+00 1.289190000000000058e+00 1.223390000000000022e+01 5.036929999999999907e+00 3.156400000000000095e+00 8.637399999999999523e+00
3.497990000000000155e+00 6.432559999999999611e+00 7.962909999999999933e+00 5.217380000000000351e+00 3.358400000000000052e+00 5.864720000000000155e+00 1.077704999999999913e+01 5.970999999999999641e-01 3.230119999999999880e+00 7.855050000000000310e+00 2.074190000000000200e+00 4.414780000000000371e+00 1.055863000000000085e+01 5.056739999999999569e+00 5.304829999999999934e+00 9.690979999999999706e+00 3.254699999999999815e-01 7.697110000000000340e+00 6.959199999999999831e-01 3.826849999999999863e+00 7.667659999999999698e+00 1.647129999999999983e+00 6.520200000000000440e-01 7.367799999999999905e+00 6.972559999999999647e+00 4.744819999999999816e+00 4.447790000000000354e+00 5.039419999999999789e+00 4.361180000000000057e+00 8.176180000000000447e+00 5.570380000000000109e+00 7.745999999999999552e-01 5.054649999999999643e+00 8.927250000000000796e+00 1.558750000000000080e+00 2.200060000000000127e+00 1.038899999999999935e+00 6.148369999999999891e+00 9.156319999999999126e+00 1.343951000000000029e+01 3.026800000000000046e-01 3.319749999999999979e+00 1.020541000000000054e+01 2.596750000000000114e+00 5.895080000000000098e+00 2.429689999999999905e+00 2.738820000000000032e+00 6.027709999999999901e+00 9.410399999999999210e+00 5.443060000000000009e+00 7.944009999999999572e+00 -1.405759999999999899e+00 4.853740000000000165e+00 6.073850000000000193e+00 7.424300000000000344e-01 2.116280000000000161e+00 9.495730000000000004e+00 7.766639999999999766e+00 1.815290000000000070e+00 8.371880000000000877e+00
2.093750000000000000e+00 3.254830000000000112e+00 3.328640000000000043e+00 4.701769999999999783e+00 9.521599999999999397e+00 4.575999999999999623e+00 3.572280000000000122e+00 6.394599999999999618e+00 3.316650000000000098e+00 5.284919999999999618e+00 9.331300000000000150e-01 3.868529999999999802e+00 2.628519999999999968e+00 1.971759999999999957e+00 7.440739999999999910e+00 7.129299999999999748e+00 4.094640000000000057e+00 1.014289999999999914e+01 6.519199999999999662e+00 4.827899999999999636e+00 5.656460000000000043e+00 3.832160000000000011e+00 3.746480000000000032e+00 1.009880000000000067e+01 3.040070000000000050e+00 8.047400000000000109e-01 2.295350000000000001e+00 2.592429999999999790e+00 8.951249999999999929e+00 3.015420000000000211e+00 6.182050000000000267e+00 3.685060000000000002e+00 3.317730000000000068e+00 2.695419999999999927e+00 4.934269999999999712e+00 1.671450000000000102e+00 2.509549999999999947e+00 4.359440000000000204e+00 5.719000000000000306e+00 4.317389999999999617e+00 1.188300000000000051e-01 6.185870000000000424e+00 5.447960000000000136e+00 7.083809999999999718e+00 5.395159999999999734e+00 7.959699999999999553e-01 5.863099999999999978e-01 6.495829999999999771e+00 2.111250000000000071e+00 2.016739999999999977e+00 1.015509999999999913e+01 2.174700000000000077e+00 5.919810000000000016e+00 9.666489999999999583e+00 5.490450000000000053e+00 3.936549999999999994e+00 7.897569999999999979e+00 5.667189999999999728e+00 3.267409999999999926e+00 1.210420000000000051e+01
3.239009999999999945e+00 1.690199999999999925e+00 3.379729999999999901e+00 4.554409999999999847e+00 8.229580000000000339e+00 5.872550000000000381e+00 1.514769999999999950e+00 4.498680000000000234e+00 3.898439999999999905e+00 7.498230000000000395e+00 8.636599999999999611e+00 4.017489999999999561e+00 2.412080000000000002e+00 2.440609999999999946e+00 8.361850000000000449e+00 7.736229999999999940e+00 5.628890000000000171e+00 8.635149999999999437e+00 6.204419999999999824e+00 2.914719999999999978e+00 5.639389999999999681e+00 4.446049999999999613e+00 5.949880000000000280e+00 9.233140000000000569e+00 4.933189999999999742e+00 8.556729999999999947e+00 3.169070000000000054e+00 2.136289999999999800e+00 7.047939999999999650e+00 3.055839999999999890e+00 5.681320000000000370e+00 1.974639999999999951e+00 2.923579999999999846e+00 1.797039999999999971e+00 3.232699999999999907e+00 1.777020000000000044e+00 2.922309999999999963e+00 3.379199999999999982e+00 5.877880000000000216e+00 7.110509999999999664e+00 8.709559999999999746e+00 6.486970000000000347e+00 6.637500000000000178e+00 5.321930000000000049e+00 5.728810000000000180e+00 7.130119999999999791e+00 8.611499999999999710e-01 7.016849999999999810e+00 2.459639999999999826e+00 5.821119999999999628e+00 1.079250000000000043e+01 2.657070000000000043e+00 6.679059999999999775e+00 7.439630000000000187e+00 6.654679999999999929e+00 3.464760000000000062e+00 9.311080000000000467e+00 6.533079999999999998e+00 7.735759999999999970e+00 9.454399999999999693e+00
6.598880000000000301e+00 1.556850000000000067e+00 3.985570000000000057e+00 2.746189999999999909e+00 8.736560000000000770e+00 3.101490000000000080e+00 7.285400000000000098e+00 6.158190000000000275e+00 3.608400000000000052e+00 3.128779999999999895e+00 5.164800000000000502e-01 4.745510000000000339e+00 1.944059999999999899e+00 3.919150000000000134e+00 6.777079999999999771e+00 4.288190000000000168e+00 3.509360000000000035e+00 1.100200000000000067e+01 3.663920000000000066e+00 4.649440000000000239e+00 2.251059999999999839e+00 8.629900000000000349e-01 3.257390000000000008e+00 1.089109999999999978e+01 1.836449999999999916e+00 3.881000000000000005e-01 2.306820000000000093e+00 7.817630000000000301e+00 9.711439999999999628e+00 5.145199999999999996e+00 7.128540000000000099e+00 3.782160000000000188e+00 2.502400000000000180e+00 7.730039999999999800e+00 7.967620000000000147e+00 1.496799999999999908e+00 7.101440000000000197e+00 5.819869999999999877e+00 6.262069999999999581e+00 4.080840000000000245e+00 3.085259999999999891e+00 5.014029999999999987e+00 4.273550000000000182e+00 6.956809999999999938e+00 4.179850000000000065e+00 1.169869999999999965e+00 1.520880000000000010e+00 6.222889999999999588e+00 5.891539999999999999e+00 2.049819999999999975e+00 1.248530000000000051e+01 5.955359999999999765e+00 4.850889999999999702e+00 9.513180000000000192e+00 2.719390000000000196e+00 2.296330000000000204e+00 9.237790000000000390e+00 2.687209999999999877e+00 4.681639999999999802e+00 1.255790000000000006e+01
4.899799999999999933e+00 6.691000000000000281e-01 6.027879999999999683e+00 2.432519999999999794e+00 4.161030000000000229e+00 5.561259999999999870e+00 8.626260000000000261e+00 1.109509999999999996e+00 3.848230000000000040e+00 6.751260000000000261e+00 4.344850000000000101e+00 3.475750000000000117e+00 9.581640000000000157e+00 1.562559999999999949e+00 8.678219999999999601e+00 5.631669999999999732e+00 5.747620000000000395e+00 6.937210000000000321e+00 4.036100000000000243e-01 3.733089999999999797e+00 8.279759999999999565e+00 3.094100000000000183e-01 3.205299999999999816e-01 7.535790000000000433e+00 5.632810000000000095e+00 6.207600000000000229e+00 1.797849999999999948e+00 5.235210000000000363e+00 3.497850000000000126e+00 5.422150000000000247e+00 1.925810000000000022e+00 6.019890000000000185e+00 3.964329999999999909e+00 8.886829999999999785e+00 3.424669999999999881e+00 2.710850000000000204e+00 2.297899999999999943e-01 6.331389999999999851e+00 7.933550000000000324e+00 7.766759999999999664e+00 6.351420000000000066e+00 5.408039999999999736e+00 7.382159999999999833e+00 1.434819999999999984e+00 6.559879999999999711e+00 5.592099999999999849e-01 2.250189999999999912e+00 6.012830000000000119e+00 5.995639999999999858e+00 5.844129999999999825e+00 9.532199999999999562e+00 9.766619999999999635e+00 3.931659999999999933e+00 7.558530000000000193e+00 -1.098599999999999993e-01 1.585650000000000004e+00 9.853360000000000340e+00 2.772940000000000182e+00 4.558950000000000280e+00 8.196440000000000836e+00
4.119410000000000238e+00 2.815409999999999968e+00 4.427500000000000213e+00 6.565159999999999663e+00 6.808399999999999785e+00 3.424970000000000070e+00 7.964839999999999698e+00 2.904640000000000111e+00 4.172250000000000014e+00 1.016319000000000017e+01 5.824040000000000106e+00 4.408610000000000362e+00 1.903790000000000093e+00 6.313100000000000378e-01 8.143869999999999720e+00 3.663660000000000139e+00 4.755219999999999558e+00 7.769379999999999953e+00 5.726029999999999731e+00 1.162290000000000045e+00 7.390349999999999753e+00 7.633849999999999802e+00 5.221540000000000070e+00 9.023809999999999221e+00 2.196070000000000189e+00 1.942720000000000002e+00 2.917120000000000157e+00 4.664320000000000022e+00 5.032939999999999969e+00 2.935309999999999864e+00 6.018180000000000085e+00 1.302100000000000035e+00 3.140460000000000029e+00 8.403320000000000789e+00 5.135419999999999874e+00 2.406190000000000051e+00 5.797380000000000422e+00 3.616190000000000015e+00 6.350730000000000430e+00 8.070589999999999264e+00 7.142750000000000377e+00 5.980050000000000310e+00 9.771309999999999718e+00 3.518470000000000208e+00 6.082889999999999908e+00 1.186938999999999922e+01 7.295449999999999768e+00 6.080210000000000115e+00 4.015010000000000190e+00 1.700830000000000064e+00 9.434340000000000614e+00 5.505460000000000242e+00 5.999150000000000205e+00 9.620520000000000849e+00 7.621229999999999727e+00 2.430260000000000087e+00 8.978690000000000282e+00 9.744160000000000821e+00 6.121690000000000076e+00 9.479829999999999757e+00
5.205049999999999955e+00 4.049200000000000021e-01 7.009769999999999612e+00 4.224450000000000038e+00 3.492999999999999883e+00 4.980209999999999582e+00 9.005229999999999180e+00 7.270999999999999686e-02 4.038059999999999761e+00 7.554730000000000167e+00 2.790430000000000188e+00 3.648950000000000138e+00 8.415940000000000865e+00 3.739539999999999864e+00 7.340790000000000148e+00 6.798429999999999751e+00 6.573629999999999640e+00 7.991530000000000022e+00 -6.059700000000000086e-01 4.538459999999999717e+00 7.637459999999999916e+00 5.802500000000000435e-01 1.508909999999999973e+00 7.387570000000000192e+00 5.347979999999999734e+00 4.481530000000000236e+00 2.635359999999999925e+00 4.425839999999999996e+00 5.019610000000000127e+00 7.570070000000000299e+00 5.185990000000000322e+00 8.880900000000000460e-01 4.510919999999999597e+00 9.294000000000000483e+00 1.531449999999999978e+00 2.085339999999999971e+00 3.090500000000000025e+00 5.598999999999999533e-01 8.280770000000000408e+00 8.384600000000000719e+00 4.837110000000000021e+00 4.923869999999999969e+00 9.981669999999999376e+00 1.680520000000000014e+00 5.980199999999999960e+00 1.227020000000000000e+00 3.178490000000000038e+00 5.552059999999999995e+00 8.060769999999999769e+00 5.403400000000000425e+00 9.604319999999999524e+00 1.122064999999999912e+01 5.823010000000000019e+00 6.328879999999999839e+00 -1.214299999999999963e-01 2.799290000000000056e+00 9.546039999999999637e+00 7.225189999999999557e+00 1.884730000000000016e+00 8.382659999999999556e+00
1.376190000000000024e+00 4.297920000000000407e+00 2.162889999999999979e+00 2.881600000000000272e-01 9.635099999999999776e-01 5.667329999999999757e+00 5.051199999999999690e+00 2.393149999999999888e+00 2.243459999999999788e+00 1.767120000000000024e+00 5.283700000000000063e-01 1.986110000000000042e+00 2.282449999999999868e+00 6.153279999999999639e+00 1.069469999999999921e+01 4.287869999999999848e+00 1.992420000000000080e+00 6.348550000000000360e+00 5.275570000000000093e+00 5.525760000000000005e+00 8.779339999999999478e+00 3.819929999999999826e+00 2.755100000000000104e+00 1.033050000000000068e+01 -7.989500000000000490e-01 3.837439999999999962e+00 8.122599999999999820e-01 1.758809999999999985e+00 6.461579999999999657e+00 3.016150000000000109e+00 3.245270000000000099e+00 2.881089999999999929e+00 7.682200000000000140e-01 6.954979999999999940e+00 6.800000000000000488e-04 3.483119999999999994e+00 6.045539999999999914e+00 3.304370000000000029e+00 4.866430000000000256e+00 3.115569999999999951e+00 6.277050000000000018e+00 7.174710000000000143e+00 2.592000000000000082e+00 2.782610000000000028e+00 4.379340000000000011e+00 1.897929999999999895e+00 7.432400000000000118e-01 7.727079999999999949e+00 4.776580000000000048e+00 5.839559999999999640e+00 1.127979999999999983e+01 1.744769999999999932e+00 3.876320000000000210e+00 9.832409999999999428e+00 3.565389999999999837e+00 1.061330000000000107e+00 1.230240000000000045e+01 5.758160000000000167e+00 2.900189999999999824e+00 8.561109999999999332e+00
6.486519999999999619e+00 1.745460000000000012e+00 3.975410000000000110e+00 2.508410000000000029e+00 8.186859999999999360e+00 3.419540000000000024e+00 6.364799999999999791e+00 5.376140000000000363e+00 3.686110000000000220e+00 3.144870000000000054e+00 7.206700000000000328e-01 5.046179999999999666e+00 2.277489999999999792e+00 3.845009999999999817e+00 7.151720000000000077e+00 4.042550000000000310e+00 3.582469999999999821e+00 1.099869999999999948e+01 3.200969999999999871e+00 4.630130000000000301e+00 1.434439999999999937e+00 7.384089999999999598e+00 3.979400000000000048e+00 1.107579999999999920e+01 1.793530000000000069e+00 2.242000000000000104e-01 2.779520000000000213e+00 7.835619999999999585e+00 9.909150000000000347e+00 5.289819999999999744e+00 6.651460000000000150e+00 3.486699999999999910e+00 1.915939999999999976e+00 7.682310000000000194e+00 6.814899999999999736e+00 1.446579999999999977e+00 7.374130000000000074e+00 5.827090000000000103e+00 6.249480000000000146e+00 4.056650000000000311e+00 3.510899999999999910e+00 5.032409999999999606e+00 3.815469999999999917e+00 5.963110000000000355e+00 4.147560000000000358e+00 1.021060000000000079e+00 1.673130000000000006e+00 6.571740000000000137e+00 5.908079999999999998e+00 2.136210000000000164e+00 1.205569999999999986e+01 5.725579999999999892e+00 4.989069999999999894e+00 9.152990000000000848e+00 2.530889999999999862e+00 2.441710000000000047e+00 9.345269999999999300e+00 2.826830000000000176e+00 5.228989999999999583e+00 1.231819999999999915e+01
7.889619999999999855e+00 4.699400000000000244e-01 8.512850000000000250e+00 6.456889999999999574e+00 2.930289999999999839e+00 6.536979999999999791e+00 1.132877000000000045e+01 4.607899999999999774e-01 3.641560000000000130e+00 9.392670000000000741e+00 3.288120000000000154e+00 3.430099999999999927e+00 1.182349999999999923e+01 4.216510000000000424e+00 5.777849999999999930e+00 1.195904999999999951e+01 8.313700000000000534e-01 8.400380000000000180e+00 2.400160000000000071e+00 3.684829999999999828e+00 7.043239999999999945e+00 3.314740000000000020e+00 3.383900000000000241e-01 6.854549999999999699e+00 7.390570000000000306e+00 4.405289999999999928e+00 4.297920000000000407e+00 6.904980000000000118e+00 3.866350000000000176e+00 9.022030000000000882e+00 7.877740000000000187e+00 7.815400000000000125e-01 5.942029999999999923e+00 9.937670000000000670e+00 1.706739999999999924e+00 1.825169999999999959e+00 2.874109999999999943e+00 5.633939999999999948e+00 8.770110000000000738e+00 1.148553000000000068e+01 5.250989999999999824e+00 3.189229999999999787e+00 1.244182999999999950e+01 1.719419999999999948e+00 5.911559999999999704e+00 4.483010000000000161e+00 2.123590000000000089e+00 5.365249999999999631e+00 1.222025999999999968e+01 5.434709999999999930e+00 7.697090000000000209e+00 4.503999999999999670e-02 4.264730000000000132e+00 6.092489999999999739e+00 1.384430000000000049e+00 1.601869999999999905e+00 8.043120000000000047e+00 9.585729999999999862e+00 2.336460000000000203e+00 9.007199999999999207e+00
6.390270000000000117e+00 2.194570000000000132e+00 2.922950000000000159e+00 3.138469999999999871e+00 7.511709999999999887e+00 1.977270000000000083e+00 7.678399999999999892e+00 6.272009999999999863e+00 4.554859999999999687e+00 2.918820000000000192e+00 4.032499999999999973e-01 4.412449999999999761e+00 2.193330000000000002e+00 2.889240000000000030e+00 7.099260000000000126e+00 3.909980000000000011e+00 3.226970000000000116e+00 1.096920000000000073e+01 3.866239999999999899e+00 4.334889999999999688e+00 3.889219999999999899e+00 7.338829999999999742e+00 2.853889999999999816e+00 1.097659999999999947e+01 1.695719999999999894e+00 6.848899999999999988e-01 2.126669999999999838e+00 7.622510000000000119e+00 8.679710000000000036e+00 4.027459999999999596e+00 4.352129999999999832e+00 3.618489999999999984e+00 1.625019999999999909e+00 1.202229999999999910e+00 4.719050000000000189e+00 2.297280000000000211e+00 7.824650000000000105e+00 5.111189999999999678e+00 6.852630000000000443e+00 4.718200000000000394e+00 2.545609999999999928e+00 5.842030000000000278e+00 4.595419999999999838e+00 6.845629999999999882e+00 4.520609999999999573e+00 6.143699999999999717e-01 1.167249999999999899e+00 5.369699999999999918e+00 5.379170000000000229e+00 1.555620000000000003e+00 1.224670000000000059e+01 5.568870000000000431e+00 4.551569999999999894e+00 9.553160000000000096e+00 2.458699999999999886e+00 1.585520000000000040e+00 9.528890000000000526e+00 2.212969999999999882e+00 4.734499999999999709e+00 1.229480000000000040e+01