8.253485102999999157e+00 0.000000000000000000e+00 0.000000000000000000e+00 -4.139536986999999613e+00 7.169888888000000016e+00 0.000000000000000000e+00 0.000000000000000000e+00 0.000000000000000000e+00 2.000000000000000000e+01
8.275799881999999386e+00 0.000000000000000000e+00 0.000000000000000000e+00 -4.088207201000000346e+00 7.080983084999999733e+00 0.000000000000000000e+00 0.000000000000000000e+00 0.000000000000000000e+00 2.000000000000000000e+01
8.544441767000000354e+00 0.000000000000000000e+00 0.000000000000000000e+00 -4.229449147999999603e+00 7.325621329999999709e+00 0.000000000000000000e+00 0.000000000000000000e+00 0.000000000000000000e+00 2.000000000000000000e+01
8.668332893000000539e+00 0.000000000000000000e+00 0.000000000000000000e+00 -4.473265152999999827e+00 7.747923068999999607e+00 0.000000000000000000e+00 0.000000000000000000e+00 0.000000000000000000e+00 2.000000000000000000e+01
8.388511096000000222e+00 0.000000000000000000e+00 0.000000000000000000e+00 -4.234269678999999620e+00 7.333970736000000379e+00 0.000000000000000000e+00 0.000000000000000000e+00 0.000000000000000000e+00 2.000000000000000000e+01
8.874888051999999306e+00 0.000000000000000000e+00 0.000000000000000000e+00 -4.349356305999999783e+00 7.533306634999999751e+00 0.000000000000000000e+00 0.000000000000000000e+00 0.000000000000000000e+00 2.000000000000000000e+01
8.588349235000000803e+00 0.000000000000000000e+00 0.000000000000000000e+00 -4.322403014999999904e+00 7.486622161999999747e+00 0.000000000000000000e+00 0.000000000000000000e+00 0.000000000000000000e+00 2.000000000000000000e+01
8.402961686999999458e+00 0.000000000000000000e+00 0.000000000000000000e+00 -4.201176425999999964e+00 7.276651536000000142e+00 0.000000000000000000e+00 0.000000000000000000e+00 0.000000000000000000e+00 2.000000000000000000e+01
8.622917444000000486e+00 0.000000000000000000e+00 0.000000000000000000e+00 -4.342346900999999981e+00 7.521165987999999913e+00 0.000000000000000000e+00 0.000000000000000000e+00 0.000000000000000000e+00 2.000000000000000000e+01
8.178843088000000705e+00 0.000000000000000000e+00 0.000000000000000000e+00 -4.205794566999999873e+00 7.284650391999999641e+00 0.000000000000000000e+00 0.000000000000000000e+00 0.000000000000000000e+00 2.000000000000000000e+01
8.325973894000000541e+00 0.000000000000000000e+00 0.000000000000000000e+00 -4.278667328000000047e+00 7.410869724000000325e+00 0.000000000000000000e+00 0.000000000000000000e+00 0.000000000000000000e+00 2.000000000000000000e+01
8.574018410000000756e+00 0.000000000000000000e+00 0.000000000000000000e+00 -4.162207780000000135e+00 7.209155854999999669e+00 0.000000000000000000e+00 0.000000000000000000e+00 0.000000000000000000e+00 2.000000000000000000e+01
8.661587576000000510e+00 0.000000000000000000e+00 0.000000000000000000e+00 -4.364545721999999905e+00 7.559615476000000278e+00 0.000000000000000000e+00 0.000000000000000000e+00 0.000000000000000000e+00 2.000000000000000000e+01
8.349491412000000778e+00 0.000000000000000000e+00 0.000000000000000000e+00 -4.136958792999999801e+00 7.165423323999999816e+00 0.000000000000000000e+00 0.000000000000000000e+00 0.000000000000000000e+00 2.000000000000000000e+01
8.919416741999999232e+00 0.000000000000000000e+00 0.000000000000000000e+00 -4.466047150999999715e+00 7.735421120999999900e+00 0.000000000000000000e+00 0.000000000000000000e+00 0.000000000000000000e+00 2.000000000000000000e+01
8.773126101000000787e+00 0.000000000000000000e+00 0.000000000000000000e+00 -4.058957647999999807e+00 7.030321370000000236e+00 0.000000000000000000e+00 0.000000000000000000e+00 0.000000000000000000e+00 2.000000000000000000e+01
8.314820179999999894e+00 0.000000000000000000e+00 0.000000000000000000e+00 -4.026766507999999689e+00 6.974564674999999880e+00 0.000000000000000000e+00 0.000000000000000000e+00 0.000000000000000000e+00 2.000000000000000000e+01
8.358496272000000005e+00 0.000000000000000000e+00 0.000000000000000000e+00 -4.303279175000000123e+00 7.453498697999999756e+00 0.000000000000000000e+00 0.000000000000000000e+00 0.000000000000000000e+00 2.000000000000000000e+01
8.470342721999999824e+00 0.000000000000000000e+00 0.000000000000000000e+00 -4.245588979999999957e+00 7.353576342000000210e+00 0.000000000000000000e+00 0.000000000000000000e+00 0.000000000000000000e+00 2.000000000000000000e+01
8.394637076000000420e+00 0.000000000000000000e+00 0.000000000000000000e+00 -4.167986280000000043e+00 7.219164512999999950e+00 0.000000000000000000e+00 0.000000000000000000e+00 0.000000000000000000e+00 2.000000000000000000e+01
8.596935051999999189e+00 0.000000000000000000e+00 0.000000000000000000e+00 -4.289640205999999623e+00 7.429875307999999734e+00 0.000000000000000000e+00 0.000000000000000000e+00 0.000000000000000000e+00 2.000000000000000000e+01
8.272958738999999895e+00 0.000000000000000000e+00 0.000000000000000000e+00 -4.136469252000000374e+00 7.164575414999999836e+00 0.000000000000000000e+00 0.000000000000000000e+00 0.000000000000000000e+00 2.000000000000000000e+01
8.602904579000000496e+00 0.000000000000000000e+00 0.000000000000000000e+00 -4.405709446999999557e+00 7.630913143999999981e+00 0.000000000000000000e+00 0.000000000000000000e+00 0.000000000000000000e+00 2.000000000000000000e+01
8.569175505000000470e+00 0.000000000000000000e+00 0.000000000000000000e+00 -4.301742001000000037e+00 7.450836233000000419e+00 0.000000000000000000e+00 0.000000000000000000e+00 0.000000000000000000e+00 2.000000000000000000e+01
8.660043485999999291e+00 0.000000000000000000e+00 0.000000000000000000e+00 -4.153741957000000262e+00 7.194492620000000116e+00 0.000000000000000000e+00 0.000000000000000000e+00 0.000000000000000000e+00 2.000000000000000000e+01
8.358921646000000649e+00 0.000000000000000000e+00 0.000000000000000000e+00 -4.117384984000000081e+00 7.131520490999999851e+00 0.000000000000000000e+00 0.000000000000000000e+00 0.000000000000000000e+00 2.000000000000000000e+01
8.123239701999999340e+00 0.000000000000000000e+00 0.000000000000000000e+00 -4.236230785000000054e+00 7.337367470000000225e+00 0.000000000000000000e+00 0.000000000000000000e+00 0.000000000000000000e+00 2.000000000000000000e+01
8.069973073999999968e+00 0.000000000000000000e+00 0.000000000000000000e+00 -4.354650558000000338e+00 7.542476547999999781e+00 0.000000000000000000e+00 0.000000000000000000e+00 0.000000000000000000e+00 2.000000000000000000e+01
8.282000341999999904e+00 0.000000000000000000e+00 0.000000000000000000e+00 -4.192396852999999979e+00 7.261444867999999886e+00 0.000000000000000000e+00 0.000000000000000000e+00 0.000000000000000000e+00 2.000000000000000000e+01
8.209741971999999777e+00 0.000000000000000000e+00 0.000000000000000000e+00 -4.256559120999999557e+00 7.372577183999999839e+00 0.000000000000000000e+00 0.000000000000000000e+00 0.000000000000000000e+00 2.000000000000000000e+01
8.536917105000000561e+00 0.000000000000000000e+00 0.000000000000000000e+00 -4.129072543999999567e+00 7.151763940000000375e+00 0.000000000000000000e+00 0.000000000000000000e+00 0.000000000000000000e+00 2.000000000000000000e+01
8.348637639999999749e+00 0.000000000000000000e+00 0.000000000000000000e+00 -4.330783248000000363e+00 7.501137151000000003e+00 0.000000000000000000e+00 0.000000000000000000e+00 0.000000000000000000e+00 2.000000000000000000e+01
8.611850559000000516e+00 0.000000000000000000e+00 0.000000000000000000e+00 -4.206458543000000105e+00 7.285800431000000188e+00 0.000000000000000000e+00 0.000000000000000000e+00 0.000000000000000000e+00 2.000000000000000000e+01
8.791626031999999924e+00 0.000000000000000000e+00 0.000000000000000000e+00 -4.404831270999999937e+00 7.629392099999999566e+00 0.000000000000000000e+00 0.000000000000000000e+00 0.000000000000000000e+00 2.000000000000000000e+01
8.114789826000000872e+00 0.000000000000000000e+00 0.000000000000000000e+00 -4.298899114000000132e+00 7.445912208000000199e+00 0.000000000000000000e+00 0.000000000000000000e+00 0.000000000000000000e+00 2.000000000000000000e+01
8.741983441000000354e+00 0.000000000000000000e+00 0.000000000000000000e+00 -4.163703182999999974e+00 7.211745969999999950e+00 0.000000000000000000e+00 0.000000000000000000e+00 0.000000000000000000e+00 2.000000000000000000e+01
8.796801937999999765e+00 0.000000000000000000e+00 0.000000000000000000e+00 -4.408110580999999861e+00 7.635072032000000064e+00 0.000000000000000000e+00 0.000000000000000000e+00 0.000000000000000000e+00 2.000000000000000000e+01
8.473944126999999327e+00 0.000000000000000000e+00 0.000000000000000000e+00 -4.189589059000000226e+00 7.256581626000000007e+00 0.000000000000000000e+00 0.000000000000000000e+00 0.000000000000000000e+00 2.000000000000000000e+01
8.661961754000000013e+00 0.000000000000000000e+00 0.000000000000000000e+00 -4.226866629999999958e+00 7.321148276999999815e+00 0.000000000000000000e+00 0.000000000000000000e+00 0.000000000000000000e+00 2.000000000000000000e+01
8.169765304000000228e+00 0.000000000000000000e+00 0.000000000000000000e+00 -4.463709332999999724e+00 7.731371902000000240e+00 0.000000000000000000e+00 0.000000000000000000e+00 0.000000000000000000e+00 2.000000000000000000e+01
8.755876262999999327e+00 0.000000000000000000e+00 0.000000000000000000e+00 -4.422330027000000108e+00 7.659700836999999929e+00 0.000000000000000000e+00 0.000000000000000000e+00 0.000000000000000000e+00 2.000000000000000000e+01
8.217247433000000711e+00 0.000000000000000000e+00 0.000000000000000000e+00 -4.106222898000000399e+00 7.112187189000000132e+00 0.000000000000000000e+00 0.000000000000000000e+00 0.000000000000000000e+00 2.000000000000000000e+01
8.922570026000000709e+00 0.000000000000000000e+00 0.000000000000000000e+00 -4.375152372999999706e+00 7.577986735999999723e+00 0.000000000000000000e+00 0.000000000000000000e+00 0.000000000000000000e+00 2.000000000000000000e+01
8.263545844999999446e+00 0.000000000000000000e+00 0.000000000000000000e+00 -4.142745850999999924e+00 7.175446802999999818e+00 0.000000000000000000e+00 0.000000000000000000e+00 0.000000000000000000e+00 2.000000000000000000e+01
8.577015122000000602e+00 0.000000000000000000e+00 0.000000000000000000e+00 -4.307010667000000126e+00 7.459961831000000210e+00 0.000000000000000000e+00 0.000000000000000000e+00 0.000000000000000000e+00 2.000000000000000000e+01
8.523838748999999382e+00 0.000000000000000000e+00 0.000000000000000000e+00 -4.180809327000000408e+00 7.241374684000000173e+00 0.000000000000000000e+00 0.000000000000000000e+00 0.000000000000000000e+00 2.000000000000000000e+01
8.287518581000000495e+00 0.000000000000000000e+00 0.000000000000000000e+00 -4.303338392999999762e+00 7.453601265999999725e+00 0.000000000000000000e+00 0.000000000000000000e+00 0.000000000000000000e+00 2.000000000000000000e+01
8.137250945999999985e+00 0.000000000000000000e+00 0.000000000000000000e+00 -4.366473940999999748e+00 7.562955249999999907e+00 0.000000000000000000e+00 0.000000000000000000e+00 0.000000000000000000e+00 2.000000000000000000e+01
8.443755122000000668e+00 0.000000000000000000e+00 0.000000000000000000e+00 -4.234017756000000077e+00 7.333534391999999791e+00 0.000000000000000000e+00 0.000000000000000000e+00 0.000000000000000000e+00 2.000000000000000000e+01
8.257213978999999426e+00 0.000000000000000000e+00 0.000000000000000000e+00 -4.214442951999999742e+00 7.299629834000000095e+00 0.000000000000000000e+00 0.000000000000000000e+00 0.000000000000000000e+00 2.000000000000000000e+01
8.256863473999999314e+00 0.000000000000000000e+00 0.000000000000000000e+00 -4.137717846000000144e+00 7.166738043999999697e+00 0.000000000000000000e+00 0.000000000000000000e+00 0.000000000000000000e+00 2.000000000000000000e+01
8.359975148000000189e+00 0.000000000000000000e+00 0.000000000000000000e+00 -4.111010560000000424e+00 7.120479664000000319e+00 0.000000000000000000e+00 0.000000000000000000e+00 0.000000000000000000e+00 2.000000000000000000e+01
8.306055599000000456e+00 0.000000000000000000e+00 0.000000000000000000e+00 -4.160716818000000039e+00 7.206573435000000138e+00 0.000000000000000000e+00 0.000000000000000000e+00 0.000000000000000000e+00 2.000000000000000000e+01
8.229776798999999698e+00 0.000000000000000000e+00 0.000000000000000000e+00 -4.175711178000000245e+00 7.232544428999999830e+00 0.000000000000000000e+00 0.000000000000000000e+00 0.000000000000000000e+00 2.000000000000000000e+01
8.343478583999999643e+00 0.000000000000000000e+00 0.000000000000000000e+00 -4.148358288999999921e+00 7.185167833000000392e+00 0.000000000000000000e+00 0.000000000000000000e+00 0.000000000000000000e+00 2.000000000000000000e+01
8.428160010999999230e+00 0.000000000000000000e+00 0.000000000000000000e+00 -4.116027286999999646e+00 7.129168890999999952e+00 0.000000000000000000e+00 0.000000000000000000e+00 0.000000000000000000e+00 2.000000000000000000e+01
8.749416928000000482e+00 0.000000000000000000e+00 0.000000000000000000e+00 -4.174370835000000390e+00 7.230222887000000043e+00 0.000000000000000000e+00 0.000000000000000000e+00 0.000000000000000000e+00 2.000000000000000000e+01
8.475398275999999953e+00 0.000000000000000000e+00 0.000000000000000000e+00 -4.201575581000000170e+00 7.277342893000000146e+00 0.000000000000000000e+00 0.000000000000000000e+00 0.000000000000000000e+00 2.000000000000000000e+01
8.567671767000000216e+00 0.000000000000000000e+00 0.000000000000000000e+00 -4.042202142999999914e+00 7.001299980999999839e+00 0.000000000000000000e+00 0.000000000000000000e+00 0.000000000000000000e+00 2.000000000000000000e+01
8.365745688000000513e+00 0.000000000000000000e+00 0.000000000000000000e+00 -4.367462195999999963e+00 7.564666959000000190e+00 0.000000000000000000e+00 0.000000000000000000e+00 0.000000000000000000e+00 2.000000000000000000e+01
8.305854198000000466e+00 0.000000000000000000e+00 0.000000000000000000e+00 -4.280507907999999695e+00 7.414057703000000110e+00 0.000000000000000000e+00 0.000000000000000000e+00 0.000000000000000000e+00 2.000000000000000000e+01
8.677391001000000159e+00 0.000000000000000000e+00 0.000000000000000000e+00 -4.318000473999999755e+00 7.478996736000000034e+00 0.000000000000000000e+00 0.000000000000000000e+00 0.000000000000000000e+00 2.000000000000000000e+01
8.740121938999999784e+00 0.000000000000000000e+00 0.000000000000000000e+00 -4.110260582000000440e+00 7.119180663999999936e+00 0.000000000000000000e+00 0.000000000000000000e+00 0.000000000000000000e+00 2.000000000000000000e+01
8.472032232000000107e+00 0.000000000000000000e+00 0.000000000000000000e+00 -4.429898094000000341e+00 7.672809113999999653e+00 0.000000000000000000e+00 0.000000000000000000e+00 0.000000000000000000e+00 2.000000000000000000e+01
8.685045574000000101e+00 0.000000000000000000e+00 0.000000000000000000e+00 -4.295115584999999570e+00 7.439358943000000224e+00 0.000000000000000000e+00 0.000000000000000000e+00 0.000000000000000000e+00 2.000000000000000000e+01
8.434531770999999623e+00 0.000000000000000000e+00 0.000000000000000000e+00 -4.286036394999999999e+00 7.423633322999999784e+00 0.000000000000000000e+00 0.000000000000000000e+00 0.000000000000000000e+00 2.000000000000000000e+01
8.556976548999999821e+00 0.000000000000000000e+00 0.000000000000000000e+00 -4.255013158999999767e+00 7.369899498999999743e+00 0.000000000000000000e+00 0.000000000000000000e+00 0.000000000000000000e+00 2.000000000000000000e+01
8.298730830000000225e+00 0.000000000000000000e+00 0.000000000000000000e+00 -4.189667119000000106e+00 7.256716830000000229e+00 0.000000000000000000e+00 0.000000000000000000e+00 0.000000000000000000e+00 2.000000000000000000e+01
8.770528557000000447e+00 0.000000000000000000e+00 0.000000000000000000e+00 -4.200481635000000047e+00 7.275448123000000322e+00 0.000000000000000000e+00 0.000000000000000000e+00 0.000000000000000000e+00 2.000000000000000000e+01
8.966962109000000680e+00 0.000000000000000000e+00 0.000000000000000000e+00 -4.405306029000000123e+00 7.630214404000000172e+00 0.000000000000000000e+00 0.000000000000000000e+00 0.000000000000000000e+00 2.000000000000000000e+01
8.446633136000000874e+00 0.000000000000000000e+00 0.000000000000000000e+00 -4.143778700000000370e+00 7.177235751000000441e+00 0.000000000000000000e+00 0.000000000000000000e+00 0.000000000000000000e+00 2.000000000000000000e+01
8.473337274000000363e+00 0.000000000000000000e+00 0.000000000000000000e+00 -4.177682311999999953e+00 7.235958533999999887e+00 0.000000000000000000e+00 0.000000000000000000e+00 0.000000000000000000e+00 2.000000000000000000e+01
8.369290210000000840e+00 0.000000000000000000e+00 0.000000000000000000e+00 -4.294404816000000125e+00 7.438127856000000371e+00 0.000000000000000000e+00 0.000000000000000000e+00 0.000000000000000000e+00 2.000000000000000000e+01
8.562980884999999986e+00 0.000000000000000000e+00 0.000000000000000000e+00 -4.122890627000000308e+00 7.141056544999999645e+00 0.000000000000000000e+00 0.000000000000000000e+00 0.000000000000000000e+00 2.000000000000000000e+01
8.393019650999999470e+00 0.000000000000000000e+00 0.000000000000000000e+00 -4.362164643999999925e+00 7.555491328999999645e+00 0.000000000000000000e+00 0.000000000000000000e+00 0.000000000000000000e+00 2.000000000000000000e+01
8.406738276000000454e+00 0.000000000000000000e+00 0.000000000000000000e+00 -4.214467712000000255e+00 7.299672720000000226e+00 0.000000000000000000e+00 0.000000000000000000e+00 0.000000000000000000e+00 2.000000000000000000e+01
8.731128140999999232e+00 0.000000000000000000e+00 0.000000000000000000e+00 -4.302982100000000365e+00 7.452984147999999642e+00 0.000000000000000000e+00 0.000000000000000000e+00 0.000000000000000000e+00 2.000000000000000000e+01
8.197023362999999563e+00 0.000000000000000000e+00 0.000000000000000000e+00 -4.042828046000000342e+00 7.002384077000000318e+00 0.000000000000000000e+00 0.000000000000000000e+00 0.000000000000000000e+00 2.000000000000000000e+01
8.593903559999999331e+00 0.000000000000000000e+00 0.000000000000000000e+00 -4.151998832000000306e+00 7.191473438000000051e+00 0.000000000000000000e+00 0.000000000000000000e+00 0.000000000000000000e+00 2.000000000000000000e+01
8.857240000999999197e+00 0.000000000000000000e+00 0.000000000000000000e+00 -4.380322489000000097e+00 7.586941640000000042e+00 0.000000000000000000e+00 0.000000000000000000e+00 0.000000000000000000e+00 2.000000000000000000e+01
8.794203777999999971e+00 0.000000000000000000e+00 0.000000000000000000e+00 -4.314551995999999612e+00 7.473023795999999663e+00 0.000000000000000000e+00 0.000000000000000000e+00 0.000000000000000000e+00 2.000000000000000000e+01
8.470743990000000778e+00 0.000000000000000000e+00 0.000000000000000000e+00 -4.224067855999999566e+00 7.316300659000000373e+00 0.000000000000000000e+00 0.000000000000000000e+00 0.000000000000000000e+00 2.000000000000000000e+01
8.759995246000000790e+00 0.000000000000000000e+00 0.000000000000000000e+00 -4.542614325999999814e+00 7.868039366999999729e+00 0.000000000000000000e+00 0.000000000000000000e+00 0.000000000000000000e+00 2.000000000000000000e+01
8.426748888000000548e+00 0.000000000000000000e+00 0.000000000000000000e+00 -4.170436393000000130e+00 7.223408232999999790e+00 0.000000000000000000e+00 0.000000000000000000e+00 0.000000000000000000e+00 2.000000000000000000e+01
8.226695330000000084e+00 0.000000000000000000e+00 0.000000000000000000e+00 -4.206138308999999964e+00 7.285245770000000398e+00 0.000000000000000000e+00 0.000000000000000000e+00 0.000000000000000000e+00 2.000000000000000000e+01
8.251702705999999665e+00 0.000000000000000000e+00 0.000000000000000000e+00 -4.237620409999999893e+00 7.339774371999999936e+00 0.000000000000000000e+00 0.000000000000000000e+00 0.000000000000000000e+00 2.000000000000000000e+01
8.258818471999999744e+00 0.000000000000000000e+00 0.000000000000000000e+00 -4.186386298999999589e+00 7.251034283000000080e+00 0.000000000000000000e+00 0.000000000000000000e+00 0.000000000000000000e+00 2.000000000000000000e+01
8.504518763000000092e+00 0.000000000000000000e+00 0.000000000000000000e+00 -4.242139443000000121e+00 7.347601567999999972e+00 0.000000000000000000e+00 0.000000000000000000e+00 0.000000000000000000e+00 2.000000000000000000e+01
8.836040486999999999e+00 0.000000000000000000e+00 0.000000000000000000e+00 -4.252681282000000174e+00 7.365860568999999636e+00 0.000000000000000000e+00 0.000000000000000000e+00 0.000000000000000000e+00 2.000000000000000000e+01
8.300913037999999133e+00 0.000000000000000000e+00 0.000000000000000000e+00 -4.091826272999999681e+00 7.087251501999999981e+00 0.000000000000000000e+00 0.000000000000000000e+00 0.000000000000000000e+00 2.000000000000000000e+01
8.307471025999999981e+00 0.000000000000000000e+00 0.000000000000000000e+00 -4.221453585999999980e+00 7.311772609000000145e+00 0.000000000000000000e+00 0.000000000000000000e+00 0.000000000000000000e+00 2.000000000000000000e+01
8.590855146999999192e+00 0.000000000000000000e+00 0.000000000000000000e+00 -4.301775711000000335e+00 7.450894619999999691e+00 0.000000000000000000e+00 0.000000000000000000e+00 0.000000000000000000e+00 2.000000000000000000e+01
8.339437332999999342e+00 0.000000000000000000e+00 0.000000000000000000e+00 -4.331296668000000238e+00 7.502026421000000056e+00 0.000000000000000000e+00 0.000000000000000000e+00 0.000000000000000000e+00 2.000000000000000000e+01
8.542529654000000860e+00 0.000000000000000000e+00 0.000000000000000000e+00 -4.307885306000000192e+00 7.461476751000000185e+00 0.000000000000000000e+00 0.000000000000000000e+00 0.000000000000000000e+00 2.000000000000000000e+01
8.335968309000000076e+00 0.000000000000000000e+00 0.000000000000000000e+00 -4.395860006999999570e+00 7.613853414000000264e+00 0.000000000000000000e+00 0.000000000000000000e+00 0.000000000000000000e+00 2.000000000000000000e+01
8.845704461000000407e+00 0.000000000000000000e+00 0.000000000000000000e+00 -4.430510867999999824e+00 7.673870468999999694e+00 0.000000000000000000e+00 0.000000000000000000e+00 0.000000000000000000e+00 2.000000000000000000e+01
8.414797037999999674e+00 0.000000000000000000e+00 0.000000000000000000e+00 -4.301406206000000232e+00 7.450254618999999856e+00 0.000000000000000000e+00 0.000000000000000000e+00 0.000000000000000000e+00 2.000000000000000000e+01
8.802660015000000726e+00 0.000000000000000000e+00 0.000000000000000000e+00 -4.416564702999999703e+00 7.649715001999999764e+00 0.000000000000000000e+00 0.000000000000000000e+00 0.000000000000000000e+00 2.000000000000000000e+01
8.419612664000000635e+00 0.000000000000000000e+00 0.000000000000000000e+00 -4.136549061000000194e+00 7.164713648000000212e+00 0.000000000000000000e+00 0.000000000000000000e+00 0.000000000000000000e+00 2.000000000000000000e+01
8.316476221000000280e+00 0.000000000000000000e+00 0.000000000000000000e+00 -4.097212556999999755e+00 7.096580819999999790e+00 0.000000000000000000e+00 0.000000000000000000e+00 0.000000000000000000e+00 2.000000000000000000e+01
