2.013990000000000169e+00 1.098950000000000093e+00 1.180569999999999986e+01 5.192999999999999700e-02 4.855220000000000091e+00 1.165169999999999995e+01 6.283439999999999692e+00 1.313460000000000072e+00 1.185609999999999964e+01 4.031119999999999592e+00 4.771729999999999805e+00 1.167999999999999972e+01 -2.860000000000000042e-02 2.299300000000000122e+00 1.617089999999999961e+01 -2.487169999999999881e+00 6.179050000000000153e+00 1.589090000000000025e+01 4.091269999999999740e+00 2.543950000000000156e+00 1.678239999999999910e+01 2.017440000000000122e+00 6.039150000000000240e+00 1.513819999999999943e+01 4.052500000000000213e+00 7.134479999999999933e+00 1.054149999999999920e+01 6.117750000000000021e+00 3.626189999999999802e+00 1.039160000000000039e+01 4.263790000000000191e+00 7.137000000000000288e-02 1.053509999999999991e+01 1.942509999999999959e+00 3.430730000000000057e+00 1.056160000000000032e+01 2.035359999999999836e+00 1.288200000000000012e+00 1.435130000000000017e+01 -2.071000000000000063e-01 4.683939999999999770e+00 1.410560000000000080e+01 6.116189999999999571e+00 1.390330000000000066e+00 1.449000000000000021e+01 3.898109999999999964e+00 4.608570000000000277e+00 1.430860000000000021e+01 1.728460000000000107e+00 1.322330000000000005e+00 1.779540000000000077e+01 -1.884670000000000067e+00 3.851440000000000197e+00 1.731729999999999947e+01 3.695749999999999869e+00 4.891070000000000029e+00 1.858909999999999840e+01 1.857150000000000079e+00 6.137699999999999712e+00 1.778219999999999956e+01
1.917629999999999946e+00 1.471070000000000100e+00 1.216220000000000034e+01 1.010999999999999954e-01 4.788829999999999920e+00 1.165179999999999971e+01 6.176239999999999952e+00 1.450979999999999936e+00 1.164939999999999998e+01 4.375440000000000218e+00 4.991889999999999716e+00 1.171700000000000053e+01 4.118200000000000194e-01 2.596690000000000165e+00 1.642989999999999995e+01 -2.169509999999999827e+00 5.638659999999999783e+00 1.603409999999999869e+01 4.045910000000000117e+00 1.479260000000000019e+00 1.737959999999999994e+01 2.052840000000000220e+00 6.359619999999999607e+00 1.482789999999999964e+01 7.420000000000000207e-02 2.983399999999999941e-01 1.052260000000000062e+01 -1.885960000000000081e+00 3.760440000000000005e+00 1.033210000000000051e+01 4.022929999999999673e+00 2.770699999999999830e-01 1.057140000000000057e+01 2.366480000000000139e+00 3.739129999999999843e+00 1.064990000000000059e+01 2.054289999999999949e+00 1.384449999999999958e+00 1.469180000000000064e+01 -5.813999999999999724e-02 4.877559999999999896e+00 1.426909999999999989e+01 6.322739999999999583e+00 1.755360000000000031e+00 1.404429999999999978e+01 4.236950000000000216e+00 4.776099999999999568e+00 1.426360000000000028e+01 1.669519999999999893e+00 2.551300000000000234e-01 1.803030000000000044e+01 6.204240000000000421e+00 3.235489999999999977e+00 1.738210000000000122e+01 2.392329999999999846e+00 3.959529999999999994e+00 1.736400000000000077e+01 1.557369999999999921e+00 6.456769999999999676e+00 1.737399999999999878e+01
2.401419999999999888e+00 1.667920000000000069e+00 1.194890000000000008e+01 1.446699999999999930e-01 5.377749999999999808e+00 1.164729999999999954e+01 6.601230000000000153e+00 1.676989999999999981e+00 1.176720000000000077e+01 4.365490000000000315e+00 5.397929999999999673e+00 1.142549999999999955e+01 1.276299999999999935e-01 1.895329999999999959e+00 1.707989999999999853e+01 -2.063810000000000144e+00 6.126229999999999620e+00 1.491910000000000025e+01 4.737519999999999953e+00 2.017009999999999970e+00 1.685099999999999909e+01 2.305159999999999876e+00 6.298449999999999882e+00 1.511509999999999998e+01 3.042599999999999749e-01 5.912399999999999878e-01 1.054850000000000065e+01 -1.933300000000000018e+00 4.069670000000000343e+00 1.048199999999999932e+01 4.446749999999999758e+00 4.832099999999999729e-01 1.054620000000000068e+01 2.207860000000000156e+00 4.078249999999999709e+00 1.058549999999999969e+01 2.163489999999999913e+00 1.491279999999999939e+00 1.449469999999999992e+01 1.866099999999999981e-01 4.764499999999999957e+00 1.411050000000000004e+01 6.575440000000000396e+00 1.525239999999999929e+00 1.435539999999999949e+01 4.364749999999999908e+00 4.906810000000000116e+00 1.401870000000000083e+01 6.369320000000000093e+00 7.468299999999999939e-01 1.860989999999999966e+01 -1.570699999999999985e+00 5.768919999999999604e+00 1.752049999999999841e+01 2.564729999999999954e+00 6.409899999999999487e-01 1.819310000000000116e+01 2.469549999999999912e+00 5.900240000000000151e+00 1.765210000000000079e+01
2.213830000000000187e+00 1.282839999999999980e+00 1.186410000000000053e+01 -2.033999999999999975e-01 5.120720000000000383e+00 1.173670000000000080e+01 6.497259999999999813e+00 1.254150000000000098e+00 1.176829999999999998e+01 4.161999999999999922e+00 5.163120000000000154e+00 1.176580000000000048e+01 1.052099999999999980e-01 2.389190000000000147e+00 1.550050000000000061e+01 -2.045729999999999826e+00 6.105850000000000222e+00 1.595560000000000045e+01 4.406159999999999854e+00 2.457840000000000025e+00 1.553969999999999985e+01 2.165470000000000006e+00 6.289109999999999978e+00 1.582249999999999979e+01 -4.405859999999999665e+00 7.726099999999999746e+00 1.082900000000000063e+01 6.361030000000000406e+00 3.804609999999999825e+00 1.064879999999999960e+01 -6.058999999999999803e-02 7.725509999999999877e+00 1.077769999999999939e+01 2.027559999999999807e+00 3.726599999999999913e+00 1.076169999999999938e+01 2.217290000000000205e+00 1.124339999999999895e+00 1.438739999999999952e+01 -3.099999999999999891e-03 5.057870000000000310e+00 1.437190000000000012e+01 6.469210000000000349e+00 1.176870000000000083e+00 1.430530000000000079e+01 4.363550000000000040e+00 5.176050000000000040e+00 1.445889999999999986e+01 -4.166599999999999748e-01 3.288460000000000161e+00 1.766179999999999950e+01 -2.388980000000000103e+00 7.283100000000000129e+00 1.808689999999999998e+01 4.128630000000000244e+00 2.556280000000000108e+00 1.791229999999999833e+01 1.617939999999999934e+00 6.901040000000000063e+00 1.807550000000000168e+01
2.149480000000000057e+00 1.352719999999999922e+00 1.156470000000000020e+01 1.316400000000000070e-01 5.022409999999999819e+00 1.171860000000000035e+01 6.415119999999999933e+00 1.252189999999999914e+00 1.188940000000000019e+01 4.306490000000000151e+00 4.904749999999999943e+00 1.180940000000000012e+01 2.224599999999999911e-01 2.212209999999999788e+00 1.597739999999999938e+01 -1.768610000000000015e+00 6.155090000000000394e+00 1.602830000000000155e+01 4.011400000000000077e+00 2.398649999999999949e+00 1.631779999999999831e+01 2.425899999999999945e+00 6.195479999999999876e+00 1.588260000000000005e+01 9.460999999999999965e-02 4.415000000000000174e-02 1.060849999999999937e+01 -1.943419999999999925e+00 3.745519999999999960e+00 1.065099999999999980e+01 4.313629999999999853e+00 1.753099999999999936e-01 1.062870000000000026e+01 2.246879999999999988e+00 3.856529999999999792e+00 1.050880000000000081e+01 2.180000000000000160e+00 1.320999999999999952e+00 1.418050000000000033e+01 3.145899999999999808e-01 4.834730000000000416e+00 1.423859999999999992e+01 6.291879999999999917e+00 1.316889999999999894e+00 1.458500000000000085e+01 4.508980000000000210e+00 4.908579999999999721e+00 1.441810000000000080e+01 -4.723700000000000121e-01 4.131649999999999601e+00 1.764920000000000044e+01 -4.090910000000000046e+00 7.139050000000000118e+00 1.731340000000000146e+01 3.678380000000000205e+00 4.540299999999999891e-01 1.785950000000000060e+01 1.781770000000000076e+00 4.500960000000000072e+00 1.784189999999999898e+01
2.215180000000000149e+00 1.192639999999999922e+00 1.185219999999999985e+01 2.057299999999999962e-01 5.139569999999999972e+00 1.172860000000000014e+01 6.678919999999999746e+00 1.366910000000000069e+00 1.174019999999999975e+01 4.545989999999999753e+00 5.033640000000000114e+00 1.162400000000000055e+01 -7.860999999999999932e-02 2.531260000000000066e+00 1.582429999999999914e+01 -1.990560000000000107e+00 6.355680000000000440e+00 1.542839999999999989e+01 4.673300000000000232e+00 2.707539999999999836e+00 1.567709999999999937e+01 2.395179999999999865e+00 6.449300000000000033e+00 1.549249999999999972e+01 8.818699999999999761e+00 2.921999999999999945e-02 1.107409999999999961e+01 -2.040979999999999794e+00 3.919249999999999901e+00 1.110769999999999946e+01 4.432949999999999946e+00 2.036999999999999922e-01 1.114559999999999995e+01 2.300650000000000084e+00 3.796670000000000211e+00 1.080819999999999936e+01 2.401019999999999932e+00 1.473070000000000102e+00 1.455840000000000067e+01 2.272899999999999920e-01 4.981530000000000236e+00 1.449980000000000047e+01 6.621730000000000338e+00 1.308040000000000092e+00 1.444759999999999955e+01 4.380130000000000301e+00 5.155890000000000306e+00 1.428960000000000008e+01 -3.483800000000000230e-01 1.834510000000000085e+00 1.805099999999999838e+01 5.647429999999999950e+00 5.404180000000000206e+00 1.736980000000000146e+01 5.122609999999999886e+00 2.683399999999999785e+00 1.798809999999999931e+01 2.024579999999999824e+00 5.941659999999999719e+00 1.776450000000000173e+01
2.018979999999999997e+00 1.196760000000000046e+00 1.139879999999999960e+01 -4.794000000000000344e-02 5.213989999999999903e+00 1.164150000000000063e+01 6.466590000000000060e+00 1.447089999999999987e+00 1.159409999999999918e+01 4.163079999999999892e+00 4.954489999999999839e+00 1.198939999999999984e+01 -2.331199999999999939e-01 2.293820000000000192e+00 1.534099999999999930e+01 -1.947130000000000027e+00 6.640920000000000378e+00 1.600769999999999982e+01 4.060870000000000424e+00 2.542759999999999909e+00 1.598780000000000001e+01 1.876970000000000027e+00 5.916179999999999772e+00 1.565380000000000038e+01 4.139969999999999928e+00 7.390329999999999622e+00 1.084200000000000053e+01 -2.228509999999999991e+00 3.917320000000000135e+00 1.083919999999999995e+01 4.321369999999999933e+00 1.961799999999999933e-01 1.058699999999999974e+01 1.986490000000000089e+00 3.703040000000000109e+00 1.104879999999999995e+01 2.007890000000000175e+00 1.375269999999999992e+00 1.428159999999999918e+01 -1.044500000000000012e-01 4.950829999999999842e+00 1.433580000000000076e+01 6.239799999999999791e+00 1.081769999999999898e+00 1.416999999999999993e+01 4.262170000000000236e+00 5.073210000000000441e+00 1.462739999999999974e+01 1.090090000000000003e+00 2.342830000000000190e+00 1.738139999999999930e+01 -1.724490000000000078e+00 6.514400000000000190e+00 1.838870000000000005e+01 4.060150000000000148e+00 1.844260000000000010e+00 1.825969999999999871e+01 2.607629999999999892e+00 6.168820000000000192e+00 1.798410000000000153e+01
2.151539999999999786e+00 1.519919999999999938e+00 1.154609999999999914e+01 1.139499999999999957e-01 5.105410000000000004e+00 1.199859999999999971e+01 6.430869999999999642e+00 1.365909999999999958e+00 1.160919999999999952e+01 4.270819999999999617e+00 5.144980000000000331e+00 1.187320000000000064e+01 -1.225900000000000045e-01 2.811170000000000169e+00 1.549729999999999919e+01 -2.183730000000000171e+00 6.653749999999999609e+00 1.628989999999999938e+01 4.552559999999999718e+00 2.607580000000000009e+00 1.506450000000000067e+01 1.843790000000000040e+00 6.756000000000000227e+00 1.764730000000000132e+01 9.773999999999999355e-02 2.188299999999999967e-01 1.044730000000000025e+01 -2.020049999999999901e+00 3.868069999999999897e+00 1.069999999999999929e+01 4.230050000000000310e+00 1.901799999999999879e-01 1.061539999999999928e+01 2.127479999999999816e+00 3.959119999999999973e+00 1.059999999999999964e+01 2.121719999999999828e+00 1.555679999999999952e+00 1.418219999999999992e+01 2.672599999999999976e-01 5.263209999999999944e+00 1.450600000000000023e+01 6.601689999999999614e+00 1.207340000000000080e+00 1.412989999999999924e+01 4.294649999999999856e+00 5.137489999999999668e+00 1.441709999999999958e+01 4.889999999999999902e-02 6.473499999999999810e-01 1.734209999999999852e+01 -1.558440000000000047e+00 4.158240000000000158e+00 1.716430000000000078e+01 4.057879999999999932e+00 1.292669999999999986e+00 1.723699999999999832e+01 3.729500000000000037e-01 4.737739999999999618e+00 1.863009999999999877e+01
3.239679999999999893e+00 1.710069999999999979e+00 1.161400000000000077e+01 8.191300000000000248e-01 5.144029999999999880e+00 1.181559999999999988e+01 7.334550000000000125e+00 1.633480000000000043e+00 1.165140000000000065e+01 5.324469999999999814e+00 5.518900000000000361e+00 1.175140000000000029e+01 1.203589999999999938e+00 2.925250000000000128e+00 1.548690000000000033e+01 3.787220000000000031e+00 5.473069999999999879e+00 1.797319999999999851e+01 5.220659999999999634e+00 2.318420000000000147e+00 1.624680000000000035e+01 3.678809999999999913e+00 6.946799999999999642e+00 1.490080000000000027e+01 1.072249999999999925e+00 4.830800000000000094e-01 1.046739999999999959e+01 -9.216999999999999638e-01 4.062520000000000131e+00 1.044710000000000072e+01 5.284299999999999997e+00 1.978699999999999903e-01 1.065049999999999919e+01 3.122110000000000163e+00 4.196500000000000341e+00 1.051360000000000028e+01 3.058969999999999967e+00 1.305870000000000086e+00 1.434210000000000029e+01 9.991900000000000226e-01 5.805430000000000312e+00 1.431460000000000043e+01 7.267979999999999663e+00 1.951349999999999918e+00 1.418459999999999965e+01 5.647170000000000023e+00 5.104589999999999961e+00 1.425730000000000075e+01 -1.241719999999999935e+00 3.668260000000000076e+00 1.749360000000000070e+01 2.192480000000000206e+00 7.322370000000000267e+00 1.741440000000000055e+01 2.997850000000000126e+00 3.058749999999999858e+00 1.769290000000000163e+01 -2.237420000000000186e+00 5.690820000000000434e+00 1.830890000000000128e+01
2.851859999999999840e+00 1.148099999999999898e+00 1.146240000000000059e+01 7.119799999999999462e-01 5.111909999999999954e+00 1.148600000000000065e+01 6.824309999999999654e+00 1.579579999999999984e+00 1.140099999999999980e+01 4.575650000000000439e+00 4.856889999999999930e+00 1.191999999999999993e+01 2.722669999999999924e+00 3.295240000000000169e+00 1.479770000000000074e+01 3.752400000000000180e+00 5.767310000000000159e+00 1.805829999999999913e+01 6.180880000000000152e+00 2.328689999999999927e+00 1.746630000000000038e+01 2.009790000000000187e+00 6.996030000000000193e+00 1.461660000000000004e+01 -3.790989999999999860e+00 7.109969999999999679e+00 1.041050000000000075e+01 -1.478369999999999962e+00 3.928809999999999913e+00 1.056969999999999921e+01 4.904810000000000336e+00 1.190500000000000030e-01 1.023039999999999949e+01 2.448440000000000172e+00 3.568649999999999878e+00 1.040450000000000053e+01 2.984379999999999811e+00 8.632199999999999873e-01 1.410570000000000057e+01 6.031100000000000350e-01 4.863979999999999748e+00 1.405199999999999960e+01 -1.095660000000000078e+00 1.905080000000000107e+00 1.407540000000000013e+01 4.375399999999999956e+00 5.497659999999999769e+00 1.440569999999999951e+01 -4.776900000000000035e-01 4.346560000000000201e+00 1.828450000000000131e+01 1.521439999999999904e+00 6.976230000000000153e+00 1.728650000000000020e+01 3.600680000000000103e+00 3.275529999999999831e+00 1.723359999999999914e+01 -2.040080000000000116e+00 5.734230000000000160e+00 1.936530000000000129e+01
1.909720000000000084e+00 1.776980000000000004e+00 1.156690000000000040e+01 -2.837700000000000222e-01 5.481819999999999915e+00 1.188899999999999935e+01 6.065140000000000420e+00 1.563069999999999959e+00 1.204490000000000016e+01 3.737309999999999910e+00 5.461500000000000021e+00 1.162330000000000041e+01 -8.354700000000000459e-01 3.336339999999999861e+00 1.531450000000000067e+01 -3.101919999999999789e+00 6.531850000000000378e+00 1.567689999999999984e+01 3.538110000000000088e+00 3.006180000000000074e+00 1.577549999999999919e+01 1.287649999999999961e+00 6.227500000000000036e+00 1.679410000000000025e+01 7.978729999999999656e+00 4.500700000000000256e-01 1.079710000000000036e+01 -2.412420000000000009e+00 4.183049999999999713e+00 1.071230000000000082e+01 3.927970000000000184e+00 4.412800000000000056e-01 1.064939999999999998e+01 1.503090000000000037e+00 4.201399999999999579e+00 1.054930000000000057e+01 1.523570000000000091e+00 1.912169999999999925e+00 1.409089999999999954e+01 -6.010400000000000187e-01 5.843399999999999928e+00 1.449770000000000003e+01 5.817610000000000170e+00 1.402800000000000047e+00 1.466719999999999935e+01 3.450720000000000010e+00 5.373999999999999666e+00 1.425229999999999997e+01 2.103400000000000158e+00 4.360399999999999832e-01 1.795599999999999952e+01 5.541719999999999757e+00 3.997040000000000148e+00 1.711060000000000159e+01 4.229790000000000383e+00 9.799999999999999684e-03 1.871249999999999858e+01 1.130430000000000046e+00 3.362309999999999910e+00 1.719279999999999831e+01
2.677579999999999849e+00 1.469870000000000010e+00 1.161979999999999968e+01 5.212799999999999656e-01 5.170449999999999768e+00 1.182399999999999984e+01 7.136280000000000179e+00 1.468310000000000004e+00 1.127500000000000036e+01 4.976950000000000429e+00 5.125449999999999839e+00 1.131279999999999930e+01 1.885590000000000099e+00 1.963810000000000056e+00 1.712719999999999843e+01 5.018279999999999852e+00 5.156299999999999883e+00 1.822009999999999863e+01 4.606690000000000396e+00 3.005129999999999857e+00 1.473700000000000010e+01 2.981679999999999886e+00 6.819600000000000328e+00 1.481859999999999999e+01 7.706899999999999862e-01 3.430500000000000216e-01 1.021069999999999922e+01 -1.476269999999999971e+00 4.141189999999999927e+00 1.031230000000000047e+01 4.706140000000000434e+00 3.404499999999999749e-01 1.039119999999999955e+01 2.692509999999999959e+00 4.058849999999999625e+00 1.059360000000000035e+01 2.605750000000000011e+00 1.315509999999999957e+00 1.414429999999999943e+01 8.168100000000000360e-01 5.156679999999999708e+00 1.442759999999999998e+01 7.358340000000000103e+00 2.045069999999999943e+00 1.384549999999999947e+01 5.239959999999999951e+00 5.561980000000000146e+00 1.404049999999999976e+01 1.062199999999999950e-01 3.730389999999999873e+00 1.834759999999999991e+01 8.386169999999999902e+00 2.295599999999999863e-01 1.738660000000000139e+01 4.402660000000000018e+00 2.642059999999999853e+00 1.740840000000000032e+01 -1.605210000000000026e+00 4.553709999999999702e+00 1.971349999999999980e+01
2.346499999999999808e+00 1.368230000000000057e+00 1.166089999999999982e+01 1.934800000000000131e-01 5.226060000000000372e+00 1.167769999999999975e+01 6.648609999999999687e+00 1.317560000000000064e+00 1.181949999999999967e+01 4.546929999999999694e+00 5.127860000000000085e+00 1.179780000000000051e+01 1.404799999999999938e-01 2.289330000000000087e+00 1.578110000000000035e+01 -1.961340000000000083e+00 6.212110000000000021e+00 1.584290000000000020e+01 4.084629999999999761e+00 2.601389999999999869e+00 1.591539999999999999e+01 2.184400000000000119e+00 6.328590000000000160e+00 1.574089999999999989e+01 1.221600000000000047e-01 7.445999999999999841e-02 1.080359999999999943e+01 -2.027140000000000164e+00 3.794410000000000061e+00 1.079989999999999917e+01 4.504870000000000374e+00 1.065500000000000058e-01 1.064990000000000059e+01 2.411729999999999929e+00 3.898899999999999810e+00 1.074709999999999965e+01 2.228520000000000056e+00 1.181570000000000009e+00 1.425559999999999938e+01 1.445899999999999963e-01 4.953859999999999708e+00 1.429480000000000040e+01 6.541590000000000238e+00 1.259069999999999911e+00 1.445390000000000086e+01 4.423989999999999867e+00 5.109250000000000291e+00 1.444599999999999973e+01 -3.641699999999999937e-01 3.914359999999999840e+00 1.781879999999999953e+01 -3.188210000000000210e+00 7.214819999999999567e+00 1.781119999999999948e+01 3.590619999999999923e+00 7.139499999999999735e-01 1.776770000000000138e+01 1.638169999999999904e+00 5.225869999999999571e+00 1.801920000000000144e+01
1.872600000000000042e+00 1.390099999999999891e+00 1.153309999999999924e+01 -1.940999999999999948e-01 4.988059999999999938e+00 1.154749999999999943e+01 6.017220000000000013e+00 1.298429999999999973e+00 1.179240000000000066e+01 3.876030000000000086e+00 5.008670000000000400e+00 1.183350000000000080e+01 1.603999999999999870e-02 2.353730000000000100e+00 1.584479999999999933e+01 -2.125440000000000218e+00 5.899200000000000443e+00 1.583799999999999919e+01 4.396510000000000140e+00 2.304679999999999840e+00 1.711009999999999920e+01 2.222430000000000128e+00 5.912670000000000314e+00 1.540080000000000027e+01 8.103270000000000195e+00 2.993299999999999850e-01 1.041760000000000019e+01 6.060570000000000235e+00 3.804260000000000197e+00 1.063599999999999923e+01 4.008519999999999861e+00 2.471299999999999886e-01 1.039189999999999969e+01 1.966350000000000042e+00 3.898519999999999985e+00 1.037010000000000076e+01 1.620200000000000085e+00 1.060149999999999926e+00 1.401640000000000086e+01 8.414000000000000645e-02 4.960849999999999760e+00 1.411730000000000018e+01 5.949609999999999843e+00 1.311180000000000012e+00 1.463189999999999991e+01 4.138729999999999798e+00 4.422039999999999971e+00 1.446840000000000082e+01 1.990250000000000075e+00 9.866599999999999815e-01 1.743809999999999860e+01 -1.544159999999999977e+00 3.778080000000000105e+00 1.744650000000000034e+01 3.848959999999999937e+00 4.295539999999999914e+00 1.886970000000000169e+01 2.630520000000000191e+00 6.074840000000000018e+00 1.807519999999999882e+01
2.211879999999999846e+00 1.498380000000000045e+00 1.194030000000000058e+01 -5.369999999999999774e-02 5.099660000000000082e+00 1.175249999999999950e+01 6.535400000000000098e+00 1.354489999999999972e+00 1.174119999999999919e+01 4.445149999999999935e+00 5.425500000000000433e+00 1.166820000000000057e+01 1.240099999999999952e-01 2.661189999999999944e+00 1.531840000000000046e+01 -2.367129999999999956e+00 6.416179999999999772e+00 1.570899999999999963e+01 4.789889999999999759e+00 2.516059999999999963e+00 1.563909999999999911e+01 2.295370000000000132e+00 6.199040000000000106e+00 1.579460000000000086e+01 1.490000000000000005e-02 3.046200000000000019e-01 1.079690000000000083e+01 6.603449999999999598e+00 3.917110000000000092e+00 1.068939999999999912e+01 4.297430000000000305e+00 1.119000000000000029e-02 1.099169999999999980e+01 2.364349999999999952e+00 3.990330000000000155e+00 1.077860000000000085e+01 2.438969999999999860e+00 1.265460000000000029e+00 1.446819999999999951e+01 -4.062999999999999945e-02 5.264439999999999564e+00 1.441610000000000014e+01 6.838610000000000078e+00 1.234429999999999916e+00 1.440450000000000053e+01 4.448199999999999932e+00 5.046219999999999928e+00 1.427180000000000071e+01 1.449300000000000033e-01 2.423220000000000152e+00 1.772469999999999857e+01 -1.965649999999999897e+00 6.226829999999999643e+00 1.819239999999999924e+01 4.361130000000000173e+00 2.193799999999999972e+00 1.802769999999999939e+01 1.475260000000000016e+00 6.483200000000000074e+00 1.805760000000000076e+01
2.009230000000000071e+00 1.108780000000000099e+00 1.175159999999999982e+01 -7.363000000000000100e-02 4.832550000000000345e+00 1.206719999999999970e+01 6.373990000000000045e+00 1.136689999999999978e+00 1.187920000000000087e+01 4.289629999999999832e+00 4.619189999999999685e+00 1.185580000000000034e+01 1.560600000000000043e-01 2.778090000000000170e+00 1.633869999999999933e+01 -2.316769999999999996e+00 5.685369999999999813e+00 1.620520000000000138e+01 3.923560000000000159e+00 2.116429999999999811e+00 1.523099999999999987e+01 2.563349999999999795e+00 6.145979999999999777e+00 1.620639999999999858e+01 4.379240000000000244e+00 6.951170000000000293e+00 1.077730000000000032e+01 6.570389999999999731e+00 3.520350000000000090e+00 1.086759999999999948e+01 9.543000000000000094e-02 6.963599999999999568e+00 1.060529999999999973e+01 2.002600000000000158e+00 3.518019999999999925e+00 1.081729999999999947e+01 1.875299999999999967e+00 7.599000000000000199e-01 1.419800000000000040e+01 1.125999999999999918e-02 5.174959999999999560e+00 1.451399999999999935e+01 6.287869999999999848e+00 1.178050000000000042e+00 1.441370000000000040e+01 4.334130000000000038e+00 4.574900000000000411e+00 1.434580000000000055e+01 2.417660000000000142e+00 3.692250000000000032e+00 1.690429999999999922e+01 6.555030000000000356e+00 3.536119999999999930e+00 1.764930000000000021e+01 5.349750000000000227e+00 1.475389999999999979e+00 1.745739999999999981e+01 -1.545000000000000019e-02 4.069499999999999784e-01 1.740850000000000009e+01
2.699850000000000083e+00 1.792240000000000055e+00 1.173900000000000077e+01 8.411300000000000443e-01 5.285129999999999661e+00 1.158230000000000004e+01 7.078529999999999767e+00 1.726930000000000076e+00 1.167040000000000077e+01 5.038009999999999877e+00 5.062719999999999665e+00 1.173460000000000036e+01 1.160779999999999923e+00 1.366060000000000052e+00 1.741580000000000084e+01 4.786430000000000184e+00 4.416540000000000354e+00 1.808490000000000109e+01 4.437999999999999723e+00 2.366109999999999935e+00 1.483649999999999913e+01 2.801010000000000222e+00 6.461759999999999948e+00 1.500709999999999944e+01 8.398700000000000054e-01 5.589100000000000179e-01 1.034299999999999997e+01 -1.196110000000000007e+00 4.076089999999999769e+00 1.048279999999999923e+01 4.900610000000000355e+00 8.404899999999999594e-01 1.046250000000000036e+01 2.932230000000000114e+00 4.145290000000000141e+00 1.046199999999999974e+01 2.483740000000000059e+00 9.768000000000000016e-01 1.415889999999999915e+01 7.512600000000000389e-01 5.173739999999999561e+00 1.414959999999999951e+01 7.101079999999999615e+00 1.978739999999999943e+00 1.422610000000000063e+01 5.035429999999999851e+00 5.034670000000000201e+00 1.425150000000000006e+01 1.690200000000000036e-01 4.190680000000000405e+00 1.711240000000000094e+01 3.387710000000000221e+00 6.674050000000000260e+00 1.752540000000000120e+01 4.050930000000000142e+00 1.900249999999999995e+00 1.758539999999999992e+01 -1.316049999999999942e+00 5.479280000000000150e+00 1.841039999999999921e+01
2.787420000000000009e+00 1.583120000000000083e+00 1.180659999999999954e+01 7.159600000000000408e-01 5.300880000000000258e+00 1.153800000000000026e+01 6.944939999999999891e+00 1.556489999999999929e+00 1.161449999999999960e+01 5.003210000000000157e+00 5.377139999999999809e+00 1.161320000000000086e+01 1.587139999999999995e+00 2.865250000000000075e+00 1.512149999999999928e+01 3.952589999999999826e+00 5.613240000000000229e+00 1.780320000000000036e+01 5.670700000000000074e+00 2.167860000000000120e+00 1.728409999999999869e+01 2.707030000000000047e+00 6.654910000000000103e+00 1.468430000000000035e+01 9.333099999999999730e-01 2.504700000000000260e-01 1.043009999999999948e+01 -1.426010000000000000e+00 4.199259999999999771e+00 1.043779999999999930e+01 4.962810000000000166e+00 4.980499999999999927e-01 1.050029999999999930e+01 3.084600000000000009e+00 3.911109999999999864e+00 1.048690000000000033e+01 3.198109999999999786e+00 1.145299999999999985e+00 1.423569999999999958e+01 5.688299999999999468e-01 5.230319999999999858e+00 1.434360000000000035e+01 7.269250000000000433e+00 1.880959999999999965e+00 1.428529999999999944e+01 4.923490000000000144e+00 5.533710000000000129e+00 1.425670000000000037e+01 -9.014400000000000190e-01 3.905040000000000067e+00 1.814219999999999899e+01 1.689540000000000042e+00 7.051610000000000156e+00 1.717849999999999966e+01 3.155359999999999943e+00 3.130990000000000162e+00 1.753430000000000177e+01 -1.726860000000000062e+00 6.112070000000000114e+00 1.821859999999999857e+01
1.916260000000000074e+00 1.442110000000000003e+00 1.182879999999999932e+01 -1.610099999999999865e-01 5.153089999999999726e+00 1.186110000000000042e+01 6.188950000000000173e+00 1.394090000000000051e+00 1.190269999999999939e+01 4.047430000000000305e+00 5.106189999999999785e+00 1.166879999999999917e+01 1.496099999999999930e-01 2.621129999999999960e+00 1.649569999999999936e+01 -2.290420000000000122e+00 6.536209999999999631e+00 1.567559999999999931e+01 4.172320000000000029e+00 2.020000000000000018e+00 1.653209999999999980e+01 2.100750000000000117e+00 6.153920000000000279e+00 1.500479999999999947e+01 8.305009999999999337e+00 2.110499999999999876e-01 1.055450000000000088e+01 -2.216909999999999936e+00 3.897689999999999877e+00 1.073739999999999917e+01 4.178619999999999557e+00 1.748999999999999999e-01 1.072639999999999993e+01 1.932290000000000063e+00 3.900399999999999867e+00 1.059290000000000020e+01 2.237750000000000128e+00 1.476939999999999920e+00 1.436739999999999995e+01 -2.516499999999999848e-01 4.957559999999999967e+00 1.438090000000000046e+01 6.469780000000000086e+00 1.329890000000000017e+00 1.444769999999999932e+01 4.361119999999999663e+00 4.928209999999999980e+00 1.426999999999999957e+01 1.834699999999999998e+00 6.230999999999999872e-01 1.783220000000000027e+01 6.237359999999999793e+00 3.838039999999999896e+00 1.717180000000000106e+01 3.857899999999999885e+00 4.153229999999999755e+00 1.809309999999999974e+01 2.222290000000000099e+00 5.834900000000000198e+00 1.760419999999999874e+01