-6.901809998000000235e+01
-6.993739041000000611e+01
-6.933266450000000702e+01
-6.627404916999999784e+01
-6.948707889000000648e+01
-6.577157540000000324e+01
-6.556656436000000099e+01
-6.982778353000000493e+01
-6.843104608999999527e+01
-6.865086048000000574e+01
-6.901727721000000315e+01
-6.841195467999999380e+01
-6.823218830999999795e+01
-6.901201023999999506e+01
-6.562204067000000407e+01
-6.921925914999999918e+01
-6.899988709999999514e+01
-6.887263882000000592e+01
-6.924057220999999629e+01
-6.867387791000000163e+01
-6.830274595999999576e+01
-6.999132009000000210e+01
-6.555260567000000549e+01
-6.918642979999999909e+01
-6.963243654000000049e+01
-6.890980462999999645e+01
-6.943481606000000284e+01
-6.864009520000000464e+01
-6.988061842000000468e+01
-6.894366508000000238e+01
-6.923015279999999905e+01
-6.813284557999999436e+01
-6.908562292999999954e+01
-6.627850746000000015e+01
-6.955317504999999301e+01
-6.915854500999999743e+01
-6.618644632999999544e+01
-6.893982450000000028e+01
-6.769987462999999650e+01
-6.755347908999999618e+01
-6.608115610999999490e+01
-6.880505128999999442e+01
-6.725221163000000502e+01
-6.991388824999999940e+01
-6.863632287000000076e+01
-6.937346734999999853e+01
-6.848745164000000329e+01
-6.864726337999999828e+01
-6.946945232000000203e+01
-6.948039439999999445e+01
-6.927056699999999978e+01
-6.913399488000000304e+01
-6.915384939999999858e+01
-6.836606028999999296e+01
-6.993927290999999968e+01
-6.985681003999999916e+01
-6.896466727000000674e+01
-7.005360437999999590e+01
-6.987166983000000187e+01
-6.894884206000000404e+01
-6.799374588000000585e+01
-6.877969077999999570e+01
-6.791746792000000710e+01
-6.817488418000000649e+01
-6.925482268000000374e+01
-6.827866840000000082e+01
-6.936460581999999420e+01
-6.905198857000000601e+01
-6.876416779000000190e+01
-6.599106405999999936e+01
-6.894026467999999852e+01
-7.001353276000000392e+01
-6.977459555999999452e+01
-6.900445716000000118e+01
-6.951621479000000647e+01
-6.998169142000000420e+01
-6.855381069999999966e+01
-6.877478510999999628e+01
-6.892875512999999899e+01
-6.638800025000000460e+01
-6.815890009999999677e+01
-6.885049175000000332e+01
-6.741005230999999753e+01
-6.909414850999999658e+01
-6.987681286000000114e+01
-6.864779964000000234e+01
-7.014963330000000497e+01
-6.921816758999999308e+01
-6.881960707000000355e+01
-6.873270214000000067e+01
-6.796374663000000282e+01
-6.854515983000000290e+01
-6.809518907999999726e+01
-6.882518251999999848e+01
-6.849352412000000356e+01
-6.779332307999999330e+01
-6.877231559999999888e+01
-6.609166655999999307e+01
-6.903103081000000429e+01
-6.933969329999999331e+01
