2.609029999999999960e-01 -2.151079999999999937e-01 -2.106220000000000037e-01 -4.697990000000000221e-01 -8.532700000000000007e-02 -8.689249999999999474e-01 -1.810859999999999970e-01 1.562290000000000068e-01 -2.982060000000000266e-01 4.412399999999999656e-02 -3.720350000000000046e-01 -3.340779999999999861e-01 -2.004390000000000061e-01 3.275440000000000018e-01 -2.023199999999999998e-01 3.155069999999999819e-01 -6.246100000000000263e-02 3.881930000000000103e-01 -4.767159999999999731e-01 -3.259000000000000178e-03 2.680390000000000272e-01 -1.256715000000000027e+00 4.683199999999999863e-02 5.039930000000000243e-01 1.384039999999999992e-01 1.786250000000000060e-01 -7.714999999999999636e-03 1.864329999999999876e-01 5.592799999999999855e-02 7.205859999999999488e-01 -3.892109999999999737e-01 1.555529999999999968e-01 2.738959999999999728e-01 4.473329999999999806e-01 2.336360000000000103e-01 -3.101769999999999805e-01 6.089999999999999927e-03 -6.796800000000000064e-02 1.875519999999999965e-01 9.599900000000000100e-02 3.076990000000000003e-01 1.337596999999999925e+00 -1.568900000000000017e-01 1.002969999999999973e-01 -2.287919999999999954e-01 9.820290000000000408e-01 -4.881480000000000263e-01 1.028339999999999949e-01 2.315199999999999897e-02 -5.206110000000000460e-01 -2.084820000000000007e-01 8.506209999999999605e-01 3.564990000000000103e-01 -1.721920000000000117e-01 -1.335419999999999940e-01 -9.668999999999999817e-02 -6.127399999999999514e-01 -8.619699999999999585e-02 -7.235000000000000112e-03 -3.284389999999999810e-01
4.754090000000000260e-01 -2.484210000000000029e-01 -8.244979999999999531e-01 2.537869999999999848e-01 9.281409999999999938e-01 -2.226879999999999971e-01 -1.972440000000000027e-01 -5.792610000000000259e-01 -1.353533000000000097e+00 3.898849999999999816e-01 4.002919999999999812e-01 -2.444340000000000124e-01 -3.349779999999999980e-01 -1.855219999999999925e-01 4.902020000000000266e-01 3.739100000000000062e-02 1.012910000000000060e-01 1.558539999999999925e-01 -6.741930000000000422e-01 5.392050000000000454e-01 -2.134790000000000021e-01 3.104319999999999857e-01 4.918899999999999662e-02 1.812890000000000057e-01 1.795910000000000006e-01 7.877900000000000180e-02 2.191950000000000010e-01 -4.769930000000000003e-01 6.920600000000000362e-02 2.409000000000000030e-02 -8.633899999999999908e-02 -2.022780000000000133e-01 6.463830000000000409e-01 -7.222650000000000459e-01 -3.547210000000000085e-01 7.094899999999999818e-02 2.762519999999999976e-01 -5.512019999999999698e-01 -5.010000000000000347e-04 7.390099999999999447e-02 -1.452219999999999900e-01 -4.713099999999999928e-02 -4.918299999999999755e-02 2.872699999999999906e-02 1.170819000000000054e+00 -6.850439999999999863e-01 -2.307400000000000076e-02 3.505900000000000127e-01 -3.832670000000000243e-01 2.216460000000000097e-01 -4.408670000000000089e-01 9.034569999999999546e-01 3.126010000000000177e-01 -4.101429999999999798e-01 5.816789999999999461e-01 -7.055630000000000512e-01 4.139200000000000101e-01 1.277230000000000032e-01 2.661870000000000069e-01 3.398199999999999832e-02
-1.262079999999999869e-01 -4.559799999999999964e-02 -2.400889999999999969e-01 -1.144040000000000057e-01 4.523900000000000143e-02 -5.199930000000000385e-01 1.526559999999999861e-01 -1.408810000000000062e-01 -2.306290000000000007e-01 3.518530000000000268e-01 5.353399999999999825e-02 -1.152149999999999980e-01 3.672700000000000270e-02 1.731530000000000014e-01 1.793200000000000002e-02 5.699739999999999807e-01 5.958949999999999525e-01 5.575029999999999708e-01 -5.242780000000000218e-01 6.332529999999999548e-01 -2.854570000000000163e-01 -1.586329999999999962e-01 1.927850000000000119e-01 -4.279490000000000238e-01 -2.744550000000000045e-01 -1.888829999999999953e-01 1.301730000000000109e-01 -2.259869999999999934e-01 1.616249999999999909e-01 2.500600000000000045e-01 -4.746700000000000225e-02 2.444699999999999998e-02 2.576910000000000034e-01 2.925380000000000202e-01 -2.815739999999999910e-01 -1.081720000000000043e-01 1.579830000000000123e-01 -4.941220000000000057e-01 5.230100000000000027e-02 -1.852099999999999927e-02 2.527490000000000014e-01 4.261280000000000068e-01 -1.517900000000000083e-01 -2.444749999999999979e-01 2.498759999999999870e-01 -2.499029999999999863e-01 -3.357499999999999929e-01 -1.262419999999999931e-01 5.306520000000000126e-01 -5.872519999999999962e-01 2.207210000000000005e-01 -1.874079999999999913e-01 -5.980069999999999553e-01 -5.910999999999999588e-01 -1.540249999999999952e-01 6.048099999999999588e-01 3.020300000000000207e-01 1.406959999999999877e-01 1.790529999999999899e-01 1.804330000000000100e-01
-3.596999999999999937e-03 -3.212700000000000278e-02 -1.050607999999999986e+00 2.073929999999999940e-01 -3.506999999999999701e-02 -3.837740000000000040e-01 2.649880000000000013e-01 2.849169999999999758e-01 -9.227119999999999767e-01 1.172939999999999955e-01 -2.311819999999999986e-01 -3.202619999999999911e-01 -3.514500000000000263e-02 -1.347460000000000047e-01 -1.818740000000000079e-01 1.954730000000000079e-01 -4.098260000000000236e-01 4.278429999999999733e-01 -4.486999999999999669e-03 2.060319999999999929e-01 -4.207119999999999749e-01 1.333509999999999973e-01 -2.144429999999999947e-01 -2.736729999999999996e-01 -1.526409999999999989e-01 1.353159999999999918e-01 2.317599999999999869e-02 -2.756300000000000069e-02 -1.614700000000000163e-02 3.954039999999999777e-01 -4.856090000000000129e-01 -9.999299999999999855e-02 -6.598999999999999831e-03 3.193000000000000092e-03 3.052130000000000121e-01 1.931690000000000074e-01 1.048209999999999975e-01 -1.272469999999999990e-01 7.717789999999999928e-01 2.417499999999999857e-02 -6.598999999999999831e-03 1.452739999999999865e-01 3.090229999999999921e-01 -1.135489999999999972e-01 8.270579999999999599e-01 -8.807800000000000351e-02 -2.720629999999999993e-01 3.474200000000000066e-01 -3.426460000000000061e-01 4.319319999999999826e-01 2.327079999999999982e-01 8.821999999999999981e-03 2.340359999999999940e-01 -3.932129999999999792e-01 -1.547650000000000137e-01 -4.424800000000000261e-02 5.572139999999999871e-01 -7.400199999999999834e-02 1.397940000000000016e-01 3.237899999999999806e-02
-8.250799999999999801e-02 3.336219999999999741e-01 2.806890000000000218e-01 2.965000000000000187e-03 1.048950000000000021e-01 -1.535779999999999923e-01 2.222500000000000031e-01 2.872910000000000186e-01 2.229109999999999980e-01 2.209369999999999945e-01 3.169120000000000270e-01 2.982219999999999871e-01 -3.103569999999999940e-01 -5.856080000000000174e-01 -7.055259999999999865e-01 3.173999999999999738e-02 3.798509999999999942e-01 -1.698790000000000022e-01 2.178289999999999949e-01 9.428250000000000242e-01 -6.437509999999999621e-01 -4.636120000000000241e-01 -2.775119999999999809e-01 -1.001789999999999958e+00 -2.397870000000000001e-01 1.663200000000000095e-02 -1.285910000000000108e-01 -4.972100000000000131e-02 -2.999499999999999944e-01 1.165189999999999976e-01 1.233449999999999963e-01 -2.555930000000000146e-01 -1.077010000000000051e-01 -1.642780000000000074e-01 -2.721899999999999875e-01 -4.834600000000000009e-02 1.384239999999999915e-01 -8.567500000000000115e-02 7.995740000000000069e-01 -1.208219999999999988e-01 2.739309999999999801e-01 7.679859999999999465e-01 -8.402400000000000146e-02 -4.390100000000000252e-02 -1.545080000000000064e-01 -4.755000000000000199e-02 -2.432950000000000113e-01 9.058199999999999585e-02 -1.521025999999999989e+00 -4.855630000000000224e-01 2.324800000000000130e-02 7.997910000000000297e-01 6.445549999999999891e-01 5.738119999999999887e-01 3.562799999999999995e-02 -1.007830000000000004e+00 -4.644299999999999817e-02 1.290775999999999923e+00 2.566039999999999988e-01 -1.343300000000000050e-02
-5.860279999999999934e-01 8.959479999999999666e-01 3.344699999999999895e-01 2.103820000000000134e-01 -3.755000000000000004e-02 5.256480000000000041e-01 5.540300000000000086e-02 1.582439999999999958e-01 2.238680000000000114e-01 -6.356199999999999628e-01 -2.947310000000000207e-01 4.310620000000000007e-01 5.806670000000000442e-01 4.059030000000000138e-01 -8.316109999999999891e-01 2.656519999999999992e-01 1.457380000000000064e-01 -1.496730000000000005e-01 -9.561039999999999539e-01 3.554120000000000057e-01 -1.600475000000000092e+00 1.432199999999999966e-02 -2.335830000000000128e-01 -1.751250000000000029e-01 3.019470000000000209e-01 3.240450000000000275e-01 -6.189989999999999659e-01 -2.156100000000000030e-02 -1.894649999999999945e-01 -6.432870000000000532e-01 4.252690000000000081e-01 -6.135770000000000390e-01 -7.912569999999999881e-01 5.611999999999999801e-03 -3.413789999999999880e-01 -2.422400000000000109e-01 -2.530240000000000267e-01 -3.616699999999999776e-02 2.048889999999999878e-01 -1.981499999999999928e-01 -1.682700000000000168e-02 -4.647850000000000037e-01 3.845779999999999754e-01 5.332940000000000458e-01 -4.812830000000000163e-01 6.809049999999999825e-01 -3.861140000000000128e-01 -3.922209999999999863e-01 1.074380000000000057e-01 -4.909839999999999760e-01 8.313340000000000174e-01 -5.849349999999999827e-01 -6.214939999999999909e-01 1.202708000000000110e+00 4.786610000000000031e-01 6.115570000000000173e-01 1.502709000000000072e+00 -2.754150000000000209e-01 -1.682720000000000049e-01 1.134268000000000054e+00
3.870919999999999916e-01 -4.523019999999999818e-01 1.153459000000000012e+00 -1.605920000000000125e-01 2.542070000000000163e-01 2.483769999999999867e-01 -1.784530000000000005e-01 -3.216390000000000082e-01 2.605049999999999866e-01 -9.230000000000000357e-03 -2.852499999999999827e-02 1.748770000000000047e-01 -8.582769999999999566e-01 -8.273000000000000839e-03 9.242699999999999527e-02 -6.486690000000000511e-01 1.696900000000000075e-01 -1.153790000000000093e+00 -3.391529999999999823e-01 7.672499999999999876e-01 -1.557671000000000028e+00 5.757729999999999793e-01 3.292709999999999804e-01 6.856989999999999474e-01 -2.786230000000000095e-01 -2.486329999999999929e-01 -6.489939999999999598e-01 -9.501700000000000423e-02 2.375390000000000001e-01 -4.611540000000000084e-01 8.871300000000000019e-02 -2.571930000000000049e-01 -3.668609999999999927e-01 4.049280000000000102e-01 7.490109999999999824e-01 -6.999049999999999994e-01 1.042612000000000094e+00 -8.242570000000000174e-01 -7.656880000000000353e-01 -8.163310000000000288e-01 2.076109999999999900e-01 -8.307399999999999507e-02 -2.452090000000000103e-01 1.370020000000000127e-01 7.467219999999999969e-01 3.907249999999999890e-01 -3.586059999999999803e-01 3.184830000000000161e-01 2.852640000000000176e-01 2.787370000000000125e-01 6.063779999999999726e-01 2.421220000000000039e-01 8.482000000000000650e-02 5.895409999999999817e-01 2.304640000000000022e-01 -7.608920000000000128e-01 1.196939999999999893e+00 -1.813899999999999887e-02 4.518199999999999994e-02 -3.362700000000000133e-01
-7.693700000000000538e-02 -3.770600000000000340e-02 4.050099999999999811e-01 -2.304900000000000004e-01 -1.276090000000000002e-01 -4.150730000000000253e-01 -2.485209999999999919e-01 4.449259999999999882e-01 -5.223440000000000305e-01 9.925799999999999901e-02 -2.502300000000000080e-01 -6.393349999999999866e-01 7.619139999999999802e-01 -3.498049999999999771e-01 -5.420540000000000358e-01 9.035260000000000513e-01 -1.286999999999999950e-02 -6.617480000000000029e-01 -3.444209999999999772e-01 -4.418199999999999905e-02 -9.143099999999999838e-02 -4.001049999999999884e-01 -2.402000000000000055e-03 2.357350000000000001e-01 1.968299999999999911e-02 -3.221379999999999799e-01 6.826599999999999335e-02 1.344559999999999922e-01 3.030419999999999781e-01 1.454979999999999885e-01 3.179859999999999909e-01 -2.062900000000000011e-01 -3.528599999999999792e-02 1.853279999999999927e-01 3.782639999999999891e-01 -8.580000000000000820e-03 1.139280000000000015e-01 -1.493549999999999878e-01 -4.984899999999999748e-02 6.876599999999999380e-02 2.044989999999999863e-01 -1.659720000000000084e-01 -1.726669999999999872e-01 -3.039450000000000207e-01 3.640539999999999887e-01 1.360300000000000051e-02 8.051899999999999336e-02 4.879499999999999948e-01 -4.292529999999999957e-01 4.742199999999999749e-01 2.017069999999999974e-01 -8.096550000000000136e-01 1.859250000000000069e-01 1.324545000000000083e+00 -1.249230000000000063e-01 -4.069809999999999817e-01 2.926179999999999892e-01 2.185239999999999960e-01 1.421169999999999933e-01 -3.937140000000000084e-01
-1.730079999999999951e-01 -1.569010000000000127e-01 4.575779999999999847e-01 1.384489000000000081e+00 8.816300000000000248e-01 7.858260000000000245e-01 4.031350000000000211e-01 -2.552670000000000217e-01 -9.714380000000000237e-01 -7.609100000000000585e-02 -1.262590000000000101e-01 -9.125769999999999715e-01 -2.774300000000000030e-02 9.385750000000000481e-01 -9.077200000000000546e-02 5.080050000000000399e-01 -1.799050000000000094e-01 3.443470000000000142e-01 -9.575699999999999490e-02 -1.719799999999999940e-01 2.755700000000000163e-02 -9.381779999999999564e-01 -4.704420000000000268e-01 1.291579999999999950e-01 -3.615349999999999953e-01 -3.698839999999999906e-01 7.049079999999999790e-01 -1.610916000000000015e+00 -3.646809999999999774e-01 -2.918140000000000178e-01 -3.497000000000000108e-03 3.518669999999999853e-01 -6.856399999999999995e-02 2.909129999999999772e-01 -1.031999999999999931e-02 5.872939999999999827e-01 9.472999999999999476e-02 4.586910000000000154e-01 -3.172159999999999980e-01 5.732190000000000341e-01 -7.899479999999999835e-01 5.172600000000000114e-02 5.681540000000000479e-01 -3.116000000000000020e-02 3.607960000000000056e-01 -3.531239999999999934e-01 4.483730000000000215e-01 3.541259999999999963e-01 -4.149869999999999948e-01 -1.277739999999999987e-01 -6.806500000000000050e-02 3.310080000000000244e-01 3.272660000000000013e-01 -6.118630000000000457e-01 -1.395679999999999976e-01 -3.361830000000000096e-01 -2.681330000000000102e-01 4.075000000000000150e-02 -1.569600000000000162e-02 -2.028719999999999968e-01
-1.254102000000000050e+00 -1.511470000000000036e-01 3.614689999999999848e-01 -1.350109999999999921e-01 -2.664349999999999774e-01 3.217199999999999921e-02 6.331700000000000106e-01 -1.167961999999999945e+00 8.969930000000000403e-01 -4.117689999999999961e-01 3.147769999999999735e-01 -6.770420000000000327e-01 3.014870000000000050e-01 4.645699999999999830e-01 -1.608640000000000070e-01 5.640070000000000361e-01 -2.550089999999999857e-01 2.267230000000000079e-01 -1.573019999999999974e-01 3.494999999999999774e-01 -2.766620000000000190e-01 -2.398049999999999904e-01 -9.789649999999999741e-01 5.887839999999999741e-01 7.188459999999999850e-01 5.203769999999999785e-01 2.629819999999999935e-01 -2.844340000000000201e-01 9.064720000000000555e-01 -7.405319999999999681e-01 1.242000000000000048e-03 6.542800000000000005e-02 -2.436200000000000032e-01 9.771429999999999838e-01 -1.448999999999999984e-03 5.210299999999999654e-02 1.010339999999999988e-01 -1.128360000000000057e-01 -5.882399999999999851e-01 -3.299830000000000263e-01 -2.244099999999999914e-02 3.878409999999999913e-01 8.024900000000000089e-02 1.065671000000000035e+00 -7.125500000000000167e-01 -6.801799999999999513e-02 -4.876650000000000151e-01 -2.148000000000000170e-03 -7.331300000000000316e-02 9.548199999999999743e-02 2.586199999999999957e-02 -9.006599999999999329e-02 -1.094259999999999955e-01 9.301000000000000240e-03 -2.171800000000000119e-01 -3.569339999999999735e-01 6.566359999999999975e-01 -1.161940000000000056e-01 1.279899999999999927e-01 -9.920700000000000351e-02
-3.071880000000000166e-01 -8.705100000000000338e-02 3.125939999999999830e-01 -9.837409999999999766e-01 3.420499999999999929e-02 1.140459999999999946e-01 -9.983899999999999997e-01 8.367329999999999490e-01 1.380889999999999895e-01 2.079989999999999895e-01 -1.119018999999999986e+00 4.086429999999999785e-01 3.488209999999999922e-01 -1.291789999999999883e-01 7.387259999999999938e-01 8.838260000000000005e-01 1.642250000000000099e-01 7.385399999999999743e-01 -5.768180000000000529e-01 -4.150000000000000043e-04 -1.450740000000000085e-01 5.695649999999999880e-01 -3.448829999999999951e-01 -3.175620000000000109e-01 5.105570000000000386e-01 4.031699999999999728e-01 -1.009689000000000059e+00 1.445790000000000131e-01 -3.071050000000000169e-01 4.331789999999999807e-01 5.682700000000000529e-01 7.322499999999999842e-02 -1.041050000000000031e-01 7.880779999999999452e-01 1.018160000000000037e-01 -3.290950000000000264e-01 1.187460000000000043e-01 -1.944710000000000050e-01 3.390909999999999758e-01 -3.301000000000000115e-03 4.439799999999999996e-02 -4.074320000000000164e-01 -1.029250000000000026e-01 -8.337600000000000566e-02 -5.819400000000000128e-01 -7.939049999999999718e-01 -1.771399999999999919e-01 -6.601040000000000241e-01 -4.847009999999999930e-01 3.473109999999999808e-01 -5.763270000000000337e-01 -1.109030000000000016e-01 2.129719999999999946e-01 3.436179999999999790e-01 1.121879999999999961e-01 -1.052720000000000045e-01 5.987869999999999582e-01 1.092410000000000048e-01 3.298579999999999846e-01 -3.398299999999999932e-02
2.031679999999999875e-01 6.232339999999999547e-01 -7.220300000000000329e-02 3.621530000000000027e-01 3.842079999999999940e-01 3.535789999999999766e-01 -5.604400000000000492e-01 3.151729999999999809e-01 -1.515779999999999905e-01 -4.678390000000000049e-01 3.407299999999999773e-01 9.428560000000000274e-01 -8.000129999999999741e-01 4.099510000000000098e-01 -1.663350000000000106e-01 -1.833919999999999995e-01 -2.642570000000000197e-01 -1.990959999999999952e-01 1.709269999999999956e-01 -2.659770000000000190e-01 -5.242900000000000338e-02 -3.039810000000000012e-01 -5.073739999999999917e-01 4.705039999999999778e-01 -5.767480000000000384e-01 6.906099999999999739e-02 -1.900890000000000080e-01 6.536480000000000068e-01 -7.828319999999999723e-01 -1.160120000000000040e-01 7.593600000000000350e-01 -1.414340000000000042e-01 1.745069999999999955e-01 -9.669600000000000417e-02 -4.106710000000000083e-01 -1.556990000000000041e-01 3.320080000000000253e-01 2.625689999999999968e-01 3.362979999999999858e-01 4.944330000000000114e-01 4.636750000000000038e-01 -1.613709999999999867e-01 -5.707179999999999476e-01 5.088100000000000261e-02 8.752699999999999370e-02 -6.535399999999999543e-02 -4.476430000000000131e-01 -5.021529999999999605e-01 5.130630000000000468e-01 1.864349999999999896e-01 -5.787999999999999812e-01 -8.627860000000000529e-01 -8.076569999999999583e-01 -5.010050000000000336e-01 1.043385000000000007e+00 3.822229999999999794e-01 -3.100379999999999803e-01 -4.417800000000000199e-02 1.397069999999999979e-01 7.915370000000000461e-01
-1.261730000000000074e-01 7.050700000000000023e-02 -9.473700000000000176e-02 -7.684299999999999464e-02 -4.143359999999999821e-01 -6.811100000000000487e-02 -2.471800000000000039e-02 -1.251299999999999982e-02 1.778499999999999873e-02 -3.915500000000000230e-02 3.351799999999999918e-02 1.968910000000000105e-01 8.749600000000000433e-02 -3.236660000000000093e-01 -2.721600000000000130e-01 4.756119999999999792e-01 -1.901140000000000052e-01 -5.813589999999999591e-01 2.851569999999999938e-01 -1.772660000000000069e-01 8.600099999999999412e-02 -4.207899999999999835e-02 2.651999999999999844e-03 -7.315570000000000128e-01 1.930469999999999964e-01 2.954100000000000129e-02 -3.244920000000000027e-01 2.791890000000000205e-01 2.925880000000000147e-01 -1.386270000000000002e-01 3.460599999999999787e-02 7.965500000000000358e-02 -1.328310000000000046e-01 -2.291660000000000086e-01 -2.251500000000000029e-02 -1.385659999999999947e-01 6.961399999999999533e-02 -5.028900000000000037e-02 5.063229999999999675e-01 -1.114279999999999993e-01 1.690859999999999863e-01 5.069829999999999615e-01 -1.131439999999999946e-01 2.147500000000000103e-02 5.056310000000000526e-01 -3.586000000000000212e-03 1.100069999999999937e-01 1.242079999999999990e-01 1.834729999999999972e-01 6.823989999999999778e-01 1.690499999999999989e-02 -3.870099999999999929e-02 5.758469999999999978e-01 1.915610000000000090e-01 -6.416370000000000129e-01 -2.830829999999999735e-01 -9.322700000000000431e-02 -1.615659999999999874e-01 -5.934949999999999948e-01 4.233799999999999786e-01
-8.164399999999999435e-02 2.893629999999999813e-01 -3.067079999999999806e-01 3.545639999999999903e-01 2.646629999999999816e-01 -2.815710000000000157e-01 3.295080000000000231e-01 2.938209999999999988e-01 5.532190000000000163e-01 5.691699999999999537e-01 3.533919999999999839e-01 -3.019879999999999787e-01 1.237820000000000031e-01 -2.008979999999999932e-01 -1.858120000000000049e-01 1.268330000000000013e-01 2.740449999999999831e-01 -7.013600000000000390e-02 6.314699999999999480e-02 -2.970650000000000235e-01 -2.809320000000000150e-01 4.314099999999999879e-02 6.123030000000000417e-01 4.968350000000000266e-01 -1.829699999999999938e-01 -6.573489999999999611e-01 5.779900000000000315e-02 -4.889020000000000032e-01 -1.354400000000000048e-01 1.070849999999999996e-01 -2.343200000000000005e-01 -1.163769999999999943e-01 -4.658600000000000241e-02 -2.081139999999999934e-01 -4.058430000000000093e-01 2.811159999999999770e-01 3.749600000000000155e-01 2.050700000000000092e-02 4.420250000000000012e-01 -5.301890000000000214e-01 -3.540820000000000078e-01 7.714560000000000306e-01 2.763799999999999937e-02 -2.612990000000000035e-01 -2.067019999999999968e-01 2.864309999999999912e-01 6.602099999999999635e-02 -5.815300000000000330e-02 -5.190970000000000306e-01 -3.556960000000000122e-01 -3.198280000000000012e-01 2.806600000000000206e-01 3.422379999999999867e-01 -2.376599999999999893e-02 3.259409999999999807e-01 -2.796179999999999777e-01 2.295290000000000108e-01 -6.605379999999999585e-01 5.473139999999999672e-01 -8.568860000000000365e-01
5.885999999999999739e-03 -6.017399999999999832e-02 -9.597010000000000263e-01 5.927199999999999830e-02 4.574299999999999894e-02 -4.421669999999999767e-01 1.470490000000000130e-01 1.520469999999999877e-01 -2.788379999999999748e-01 3.056510000000000060e-01 -1.535199999999999933e-02 -6.103229999999999489e-01 5.458699999999999664e-02 2.336500000000000035e-02 1.789890000000000092e-01 1.461109999999999909e-01 -6.694999999999999563e-02 5.367539999999999534e-01 -1.135769999999999974e-01 1.344099999999999982e-02 3.026209999999999734e-01 1.356789999999999941e-01 5.870000000000000218e-02 -3.173770000000000202e-01 -1.382639999999999980e-01 -1.675250000000000072e-01 2.146899999999999920e-01 6.374900000000000011e-02 1.434400000000000085e-02 3.725539999999999963e-01 2.221229999999999871e-01 5.516700000000000076e-02 -1.886569999999999914e-01 -5.848130000000000273e-01 -1.124850000000000017e-01 2.015530000000000099e-01 -2.382900000000000018e-01 8.099499999999999755e-02 5.350869999999999793e-01 6.816999999999999449e-02 -2.057319999999999982e-01 -5.646899999999999836e-02 3.458800000000000069e-02 -1.119310000000000027e-01 -1.140270000000000034e-01 1.326350000000000029e-01 1.872070000000000123e-01 1.012207999999999997e+00 1.915999999999999951e-03 -4.093999999999999723e-02 3.435329999999999773e-01 1.142370000000000052e-01 4.722500000000000309e-02 -6.919750000000000068e-01 -1.343300000000000050e-02 2.398300000000000085e-02 -2.487669999999999881e-01 -4.032749999999999946e-01 7.887199999999999767e-02 2.103119999999999989e-01
-2.432600000000000040e-02 -2.106949999999999934e-01 -8.673380000000000534e-01 -6.513900000000000245e-02 -7.165080000000000338e-01 -5.053940000000000099e-01 -2.488839999999999941e-01 -3.182570000000000121e-01 -1.732120000000000049e-01 1.372089999999999976e-01 -4.044189999999999729e-01 -7.082659999999999512e-01 -1.237635999999999958e+00 1.846720000000000028e-01 -6.843240000000000434e-01 1.739950000000000108e-01 5.304109999999999658e-01 -4.436510000000000176e-01 -2.260099999999999956e-02 -1.938469999999999915e-01 1.375470000000000026e-01 -1.610020000000000062e-01 1.072189000000000059e+00 -1.849979999999999958e-01 3.940080000000000249e-01 3.785540000000000016e-01 -4.772259999999999835e-01 -1.136349999999999999e-01 4.210229999999999806e-01 -2.712229999999999919e-01 1.307159999999999989e-01 5.612319999999999531e-01 -1.175790000000000030e-01 2.378329999999999889e-01 3.773150000000000115e-01 -1.580090000000000106e-01 -3.048100000000000254e-01 6.955280000000000351e-01 1.007373999999999992e+00 3.568899999999999850e-02 -8.195299999999999807e-01 1.026493000000000100e+00 4.802250000000000130e-01 6.967700000000000282e-02 -3.878770000000000273e-01 3.291799999999999726e-01 4.387360000000000149e-01 5.271970000000000267e-01 3.929210000000000202e-01 -3.440230000000000232e-01 1.639953999999999912e+00 7.224249999999999838e-01 2.168899999999999995e-01 2.408859999999999890e-01 -8.620970000000000022e-01 -1.256845999999999908e+00 3.251109999999999833e-01 5.930000000000000375e-03 -6.821019999999999861e-01 7.453400000000000303e-02
2.063079999999999914e-01 -1.002040000000000014e-01 -3.148369999999999780e-01 2.525499999999999967e-01 8.144369999999999665e-01 4.065150000000000152e-01 9.113599999999999479e-02 -3.764029999999999876e-01 -6.066089999999999538e-01 -6.322800000000000642e-02 7.389569999999999750e-01 -8.242099999999999982e-01 5.255279999999999951e-01 9.223200000000000287e-01 -5.772399999999999753e-02 -9.633199999999999541e-01 -7.026499999999999968e-01 -3.529280000000000195e-01 5.511639999999999873e-01 5.428110000000000435e-01 1.035910000000000108e+00 -3.306800000000000017e-02 -6.421259999999999746e-01 -1.548710000000000087e-01 -5.348049999999999748e-01 -3.266839999999999744e-01 5.031510000000000149e-01 -1.538849999999999940e-01 -6.553699999999999803e-02 -4.075239999999999974e-01 -4.408000000000000113e-02 -4.111859999999999959e-01 1.006699999999999956e-01 2.945800000000000154e-02 -3.924449999999999883e-01 -2.001759999999999928e-01 -5.075110000000000454e-01 1.696799999999999975e-01 -3.145560000000000023e-01 7.753000000000000169e-02 -2.736379999999999924e-01 1.229569999999999969e-01 -3.494400000000000284e-02 1.663840000000000041e-01 3.121220000000000105e-01 -1.377619999999999956e-01 -1.778440000000000021e-01 7.334850000000000536e-01 1.363769999999999982e-01 -5.160489999999999799e-01 -5.579999999999999891e-03 -9.297450000000000436e-01 -8.805739999999999679e-01 2.933270000000000044e-01 7.327820000000000444e-01 9.859769999999999923e-01 -6.467019999999999991e-01 7.995160000000000045e-01 5.247730000000000450e-01 3.775819999999999732e-01
3.355310000000000237e-01 1.594399999999999984e-02 -5.201329999999999565e-01 5.243320000000000203e-01 9.068099999999999772e-02 8.011200000000000265e-02 1.106346000000000052e+00 6.729230000000000489e-01 3.331430000000000224e-01 -6.452440000000000397e-01 3.156099999999999878e-02 1.022035000000000027e+00 -4.065929999999999822e-01 2.202510000000000023e-01 5.601819999999999578e-01 5.162529999999999619e-01 2.565509999999999735e-01 2.940619999999999901e-01 -1.981300000000000006e-01 6.431580000000000075e-01 -1.665389999999999926e-01 3.590399999999999842e-02 8.051009999999999556e-01 7.701099999999999612e-02 -5.888149999999999773e-01 7.683130000000000237e-01 8.563500000000000278e-02 6.193180000000000351e-01 -8.882379999999999720e-01 -1.298020000000000007e-01 -5.657170000000000254e-01 -8.258149999999999658e-01 -2.297700000000000020e-01 -9.446050000000000280e-01 2.593039999999999790e-01 2.851879999999999971e-01 3.956669999999999909e-01 -1.950830000000000064e-01 -5.881600000000000023e-02 -1.639039999999999941e-01 -1.361779999999999935e-01 -8.952860000000000262e-01 -1.417509999999999881e-01 -2.674529999999999963e-01 -3.366810000000000080e-01 2.914780000000000149e-01 -3.786610000000000253e-01 -2.532400000000000206e-01 1.390710000000000002e-01 -1.361159999999999870e-01 -4.137500000000000205e-02 3.611260000000000026e-01 -4.324609999999999843e-01 2.723400000000000265e-01 -8.873999999999999944e-03 -2.364340000000000053e-01 -2.377279999999999949e-01 -6.613930000000000087e-01 -2.673470000000000013e-01 -1.403379999999999905e-01
6.962599999999999345e-02 -1.093999999999999972e-01 -5.677299999999999569e-01 1.506429999999999991e-01 -9.493000000000000049e-02 -6.190780000000000172e-01 4.314350000000000129e-01 1.233979999999999938e-01 -3.511099999999999777e-01 2.057479999999999865e-01 2.927489999999999815e-01 -8.897800000000000153e-02 2.446280000000000121e-01 -3.857030000000000181e-01 2.109989999999999921e-01 -3.124400000000000094e-02 -6.774010000000000309e-01 2.329700000000000104e-01 -1.389999999999999905e-04 -8.109180000000000277e-01 -1.912030000000000118e-01 8.521800000000000208e-02 -2.903060000000000085e-01 2.362690000000000068e-01 9.875899999999999956e-02 4.472999999999999893e-02 2.815420000000000145e-01 -1.471510000000000040e-01 -3.628520000000000079e-01 -6.980100000000000193e-02 -4.846550000000000025e-01 2.929809999999999914e-01 -1.606480000000000130e-01 -1.017669999999999964e-01 -1.429390000000000105e-01 3.226519999999999944e-01 -1.673270000000000035e-01 3.764009999999999856e-01 -1.583400000000000085e-02 2.943540000000000045e-01 1.378439999999999943e-01 4.948799999999999866e-01 -6.970400000000000207e-02 1.641499999999999904e-01 9.892299999999999705e-02 -3.128230000000000177e-01 -2.664199999999999902e-02 7.234000000000000152e-02 -2.597809999999999842e-01 4.635800000000000337e-02 -2.819400000000000239e-01 6.077080000000000259e-01 7.254000000000000448e-01 2.088000000000000012e-03 -4.266909999999999870e-01 5.261890000000000178e-01 3.551940000000000097e-01 -1.868380000000000041e-01 1.708909999999999874e-01 3.846499999999999919e-02