8.590544996000000211e+00 0.000000000000000000e+00 0.000000000000000000e+00 -4.347078201999999614e+00 7.529360841999999998e+00 0.000000000000000000e+00 0.000000000000000000e+00 0.000000000000000000e+00 2.000000000000000000e+01
8.036869264999999984e+00 0.000000000000000000e+00 0.000000000000000000e+00 -3.943986242999999892e+00 6.831185040000000264e+00 0.000000000000000000e+00 0.000000000000000000e+00 0.000000000000000000e+00 2.000000000000000000e+01
8.636966500999999852e+00 0.000000000000000000e+00 0.000000000000000000e+00 3.180970680000000161e+00 8.467752184000000071e+00 0.000000000000000000e+00 0.000000000000000000e+00 0.000000000000000000e+00 2.000000000000000000e+01
8.455434503999999407e+00 0.000000000000000000e+00 0.000000000000000000e+00 -3.990322589999999892e+00 6.911441952999999749e+00 0.000000000000000000e+00 0.000000000000000000e+00 0.000000000000000000e+00 2.000000000000000000e+01
8.662468842999999197e+00 0.000000000000000000e+00 0.000000000000000000e+00 -4.023044762999999691e+00 6.968118422999999950e+00 0.000000000000000000e+00 0.000000000000000000e+00 0.000000000000000000e+00 2.000000000000000000e+01
8.193047067000000183e+00 0.000000000000000000e+00 0.000000000000000000e+00 -4.073520796000000388e+00 7.055545483999999590e+00 0.000000000000000000e+00 0.000000000000000000e+00 0.000000000000000000e+00 2.000000000000000000e+01
8.190335412999999676e+00 0.000000000000000000e+00 0.000000000000000000e+00 2.761571412999999975e+00 7.351310251000000129e+00 0.000000000000000000e+00 0.000000000000000000e+00 0.000000000000000000e+00 2.000000000000000000e+01
9.181725716000000759e+00 0.000000000000000000e+00 0.000000000000000000e+00 -3.743603822999999942e+00 6.484112482999999649e+00 0.000000000000000000e+00 0.000000000000000000e+00 0.000000000000000000e+00 2.000000000000000000e+01
8.769217284999999862e+00 0.000000000000000000e+00 0.000000000000000000e+00 -4.414507991999999881e+00 7.646152672999999567e+00 0.000000000000000000e+00 0.000000000000000000e+00 0.000000000000000000e+00 2.000000000000000000e+01
8.888605677999999344e+00 0.000000000000000000e+00 0.000000000000000000e+00 -4.387242922999999628e+00 7.598928186000000196e+00 0.000000000000000000e+00 0.000000000000000000e+00 0.000000000000000000e+00 2.000000000000000000e+01
8.349116154000000734e+00 0.000000000000000000e+00 0.000000000000000000e+00 -4.181824377999999953e+00 7.243132802999999953e+00 0.000000000000000000e+00 0.000000000000000000e+00 0.000000000000000000e+00 2.000000000000000000e+01
8.810505922000000822e+00 0.000000000000000000e+00 0.000000000000000000e+00 -4.060521615999999945e+00 7.033030240999999627e+00 0.000000000000000000e+00 0.000000000000000000e+00 0.000000000000000000e+00 2.000000000000000000e+01
8.596890388000000272e+00 0.000000000000000000e+00 0.000000000000000000e+00 -4.376477315999999895e+00 7.580281604999999701e+00 0.000000000000000000e+00 0.000000000000000000e+00 0.000000000000000000e+00 2.000000000000000000e+01
8.117328155999999240e+00 0.000000000000000000e+00 0.000000000000000000e+00 -4.411136738999999807e+00 7.640313491999999762e+00 0.000000000000000000e+00 0.000000000000000000e+00 0.000000000000000000e+00 2.000000000000000000e+01
9.306627010999999783e+00 0.000000000000000000e+00 0.000000000000000000e+00 -4.639391715000000360e+00 8.035662735000000723e+00 0.000000000000000000e+00 0.000000000000000000e+00 0.000000000000000000e+00 2.000000000000000000e+01
8.013750085999999939e+00 0.000000000000000000e+00 0.000000000000000000e+00 2.931619969999999853e+00 7.844202011000000141e+00 0.000000000000000000e+00 0.000000000000000000e+00 0.000000000000000000e+00 2.000000000000000000e+01
1.186748204200000067e+01 0.000000000000000000e+00 0.000000000000000000e+00 -3.403450149000000202e+00 5.894948996000000108e+00 0.000000000000000000e+00 0.000000000000000000e+00 0.000000000000000000e+00 2.000000000000000000e+01
8.762461826999999204e+00 0.000000000000000000e+00 0.000000000000000000e+00 -4.322808270000000341e+00 7.487324085000000018e+00 0.000000000000000000e+00 0.000000000000000000e+00 0.000000000000000000e+00 2.000000000000000000e+01
7.520087085000000116e+00 0.000000000000000000e+00 0.000000000000000000e+00 2.746095474000000092e+00 7.182508355000000400e+00 0.000000000000000000e+00 0.000000000000000000e+00 0.000000000000000000e+00 2.000000000000000000e+01
8.506726998999999623e+00 0.000000000000000000e+00 0.000000000000000000e+00 -4.038733502000000364e+00 6.995292118000000059e+00 0.000000000000000000e+00 0.000000000000000000e+00 0.000000000000000000e+00 2.000000000000000000e+01
8.866646853000000661e+00 0.000000000000000000e+00 0.000000000000000000e+00 -3.973050434000000131e+00 6.881525700000000079e+00 0.000000000000000000e+00 0.000000000000000000e+00 0.000000000000000000e+00 2.000000000000000000e+01
8.873937238999999977e+00 0.000000000000000000e+00 0.000000000000000000e+00 -4.084163518999999631e+00 7.073979221000000095e+00 0.000000000000000000e+00 0.000000000000000000e+00 0.000000000000000000e+00 2.000000000000000000e+01
8.122454825000000156e+00 0.000000000000000000e+00 0.000000000000000000e+00 -4.242338225000000129e+00 7.347945866999999964e+00 0.000000000000000000e+00 0.000000000000000000e+00 0.000000000000000000e+00 2.000000000000000000e+01
7.819173225000000116e+00 0.000000000000000000e+00 0.000000000000000000e+00 3.761011853999999932e+00 9.837057494999999818e+00 0.000000000000000000e+00 0.000000000000000000e+00 0.000000000000000000e+00 2.000000000000000000e+01
7.930692062000000320e+00 0.000000000000000000e+00 0.000000000000000000e+00 2.662129881999999892e+00 7.003227157000000425e+00 0.000000000000000000e+00 0.000000000000000000e+00 0.000000000000000000e+00 2.000000000000000000e+01
8.059650906999999975e+00 0.000000000000000000e+00 0.000000000000000000e+00 -4.530570331999999922e+00 7.847178558000000415e+00 0.000000000000000000e+00 0.000000000000000000e+00 0.000000000000000000e+00 2.000000000000000000e+01
7.857223190000000024e+00 0.000000000000000000e+00 0.000000000000000000e+00 2.826389601999999890e+00 7.523856438000000146e+00 0.000000000000000000e+00 0.000000000000000000e+00 0.000000000000000000e+00 2.000000000000000000e+01
1.187983560900000057e+01 0.000000000000000000e+00 0.000000000000000000e+00 -3.433387229000000040e+00 5.946801543000000301e+00 0.000000000000000000e+00 0.000000000000000000e+00 0.000000000000000000e+00 2.000000000000000000e+01
7.593162500000000037e+00 0.000000000000000000e+00 0.000000000000000000e+00 2.730380739000000112e+00 7.141405918000000241e+00 0.000000000000000000e+00 0.000000000000000000e+00 0.000000000000000000e+00 2.000000000000000000e+01
8.270476911999999459e+00 0.000000000000000000e+00 0.000000000000000000e+00 2.754524623000000005e+00 7.332551677999999740e+00 0.000000000000000000e+00 0.000000000000000000e+00 0.000000000000000000e+00 2.000000000000000000e+01
8.796178478999999939e+00 0.000000000000000000e+00 0.000000000000000000e+00 2.686975050000000032e+00 7.152734537999999809e+00 0.000000000000000000e+00 0.000000000000000000e+00 0.000000000000000000e+00 2.000000000000000000e+01
8.844503594000000746e+00 0.000000000000000000e+00 0.000000000000000000e+00 -4.565694303999999981e+00 7.908015064999999844e+00 0.000000000000000000e+00 0.000000000000000000e+00 0.000000000000000000e+00 2.000000000000000000e+01
7.769740867000000328e+00 0.000000000000000000e+00 0.000000000000000000e+00 -4.442190541999999631e+00 7.694100259999999913e+00 0.000000000000000000e+00 0.000000000000000000e+00 0.000000000000000000e+00 2.000000000000000000e+01
8.729726593000000534e+00 0.000000000000000000e+00 0.000000000000000000e+00 -4.620835006000000078e+00 8.003521569000000113e+00 0.000000000000000000e+00 0.000000000000000000e+00 0.000000000000000000e+00 2.000000000000000000e+01
7.729199657999999751e+00 0.000000000000000000e+00 0.000000000000000000e+00 3.325568891000000082e+00 8.698141257999999709e+00 0.000000000000000000e+00 0.000000000000000000e+00 0.000000000000000000e+00 2.000000000000000000e+01
7.045627749000000328e+00 0.000000000000000000e+00 0.000000000000000000e+00 2.568300803000000077e+00 6.717480200999999873e+00 0.000000000000000000e+00 0.000000000000000000e+00 0.000000000000000000e+00 2.000000000000000000e+01
9.520299121000000753e+00 0.000000000000000000e+00 0.000000000000000000e+00 -4.223792480000000182e+00 7.315823692999999572e+00 0.000000000000000000e+00 0.000000000000000000e+00 0.000000000000000000e+00 2.000000000000000000e+01
7.880747453999999763e+00 0.000000000000000000e+00 0.000000000000000000e+00 -4.125294489999999925e+00 7.145220156999999794e+00 0.000000000000000000e+00 0.000000000000000000e+00 0.000000000000000000e+00 2.000000000000000000e+01
8.552277454000000390e+00 0.000000000000000000e+00 0.000000000000000000e+00 2.758143308000000182e+00 7.342184625999999881e+00 0.000000000000000000e+00 0.000000000000000000e+00 0.000000000000000000e+00 2.000000000000000000e+01
8.297046092000000428e+00 0.000000000000000000e+00 0.000000000000000000e+00 -4.486074580000000367e+00 7.770109648000000035e+00 0.000000000000000000e+00 0.000000000000000000e+00 0.000000000000000000e+00 2.000000000000000000e+01
8.110965221000000724e+00 0.000000000000000000e+00 0.000000000000000000e+00 2.967167525999999889e+00 7.898607634000000211e+00 0.000000000000000000e+00 0.000000000000000000e+00 0.000000000000000000e+00 2.000000000000000000e+01
7.657300660999999842e+00 0.000000000000000000e+00 0.000000000000000000e+00 -4.272293318000000006e+00 7.399829614999999805e+00 0.000000000000000000e+00 0.000000000000000000e+00 0.000000000000000000e+00 2.000000000000000000e+01
8.258825184000000874e+00 0.000000000000000000e+00 0.000000000000000000e+00 -4.182252186000000371e+00 7.243873788000000147e+00 0.000000000000000000e+00 0.000000000000000000e+00 0.000000000000000000e+00 2.000000000000000000e+01
8.114902736999999533e+00 0.000000000000000000e+00 0.000000000000000000e+00 4.233884069000000139e+00 1.107387124100000086e+01 0.000000000000000000e+00 0.000000000000000000e+00 0.000000000000000000e+00 2.000000000000000000e+01
8.438904456999999582e+00 0.000000000000000000e+00 0.000000000000000000e+00 -4.351950788999999986e+00 7.537800412000000172e+00 0.000000000000000000e+00 0.000000000000000000e+00 0.000000000000000000e+00 2.000000000000000000e+01
8.241031767999999147e+00 0.000000000000000000e+00 0.000000000000000000e+00 -4.079722859000000312e+00 7.066287771999999912e+00 0.000000000000000000e+00 0.000000000000000000e+00 0.000000000000000000e+00 2.000000000000000000e+01
8.515616058000000876e+00 0.000000000000000000e+00 0.000000000000000000e+00 -4.214852921000000308e+00 7.300339920999999954e+00 0.000000000000000000e+00 0.000000000000000000e+00 0.000000000000000000e+00 2.000000000000000000e+01
8.795292600999999877e+00 0.000000000000000000e+00 0.000000000000000000e+00 -4.429265344000000049e+00 7.671713158000000199e+00 0.000000000000000000e+00 0.000000000000000000e+00 0.000000000000000000e+00 2.000000000000000000e+01
7.671432871000000375e+00 0.000000000000000000e+00 0.000000000000000000e+00 3.683967331999999928e+00 9.635544864999999959e+00 0.000000000000000000e+00 0.000000000000000000e+00 0.000000000000000000e+00 2.000000000000000000e+01
8.568020518000000862e+00 0.000000000000000000e+00 0.000000000000000000e+00 -4.041837796000000260e+00 7.000668914000000242e+00 0.000000000000000000e+00 0.000000000000000000e+00 0.000000000000000000e+00 2.000000000000000000e+01
8.311799929999999392e+00 0.000000000000000000e+00 0.000000000000000000e+00 -4.352097659000000007e+00 7.538054798000000112e+00 0.000000000000000000e+00 0.000000000000000000e+00 0.000000000000000000e+00 2.000000000000000000e+01
7.828031743999999570e+00 0.000000000000000000e+00 0.000000000000000000e+00 -3.957988757999999940e+00 6.855438108999999614e+00 0.000000000000000000e+00 0.000000000000000000e+00 0.000000000000000000e+00 2.000000000000000000e+01
8.243172081000000873e+00 0.000000000000000000e+00 0.000000000000000000e+00 2.922905023999999852e+00 7.780780739999999973e+00 0.000000000000000000e+00 0.000000000000000000e+00 0.000000000000000000e+00 2.000000000000000000e+01
8.514801925000000438e+00 0.000000000000000000e+00 0.000000000000000000e+00 -4.052468101999999739e+00 7.019081144000000272e+00 0.000000000000000000e+00 0.000000000000000000e+00 0.000000000000000000e+00 2.000000000000000000e+01
8.131983532999999653e+00 0.000000000000000000e+00 0.000000000000000000e+00 -4.204476590999999708e+00 7.282367588999999697e+00 0.000000000000000000e+00 0.000000000000000000e+00 0.000000000000000000e+00 2.000000000000000000e+01
8.183400990999999181e+00 0.000000000000000000e+00 0.000000000000000000e+00 -4.344821315999999989e+00 7.525451799999999913e+00 0.000000000000000000e+00 0.000000000000000000e+00 0.000000000000000000e+00 2.000000000000000000e+01
9.143171049999999411e+00 0.000000000000000000e+00 0.000000000000000000e+00 -4.352940065000000303e+00 7.539513888000000108e+00 0.000000000000000000e+00 0.000000000000000000e+00 0.000000000000000000e+00 2.000000000000000000e+01
8.701554854999999478e+00 0.000000000000000000e+00 0.000000000000000000e+00 -4.697616646000000173e+00 8.136511280000000568e+00 0.000000000000000000e+00 0.000000000000000000e+00 0.000000000000000000e+00 2.000000000000000000e+01
8.031372903999999480e+00 0.000000000000000000e+00 0.000000000000000000e+00 -4.091534751000000192e+00 7.086746569999999856e+00 0.000000000000000000e+00 0.000000000000000000e+00 0.000000000000000000e+00 2.000000000000000000e+01
8.786089077999999830e+00 0.000000000000000000e+00 0.000000000000000000e+00 -4.726718552000000351e+00 8.186917262999999778e+00 0.000000000000000000e+00 0.000000000000000000e+00 0.000000000000000000e+00 2.000000000000000000e+01
8.168042927000000120e+00 0.000000000000000000e+00 0.000000000000000000e+00 3.998048808000000065e+00 1.045703590399999960e+01 0.000000000000000000e+00 0.000000000000000000e+00 0.000000000000000000e+00 2.000000000000000000e+01
8.659602302999999779e+00 0.000000000000000000e+00 0.000000000000000000e+00 -4.181714793000000263e+00 7.242942996000000022e+00 0.000000000000000000e+00 0.000000000000000000e+00 0.000000000000000000e+00 2.000000000000000000e+01
9.860674681000000774e+00 0.000000000000000000e+00 0.000000000000000000e+00 -3.772907845000000204e+00 6.534868541999999891e+00 0.000000000000000000e+00 0.000000000000000000e+00 0.000000000000000000e+00 2.000000000000000000e+01
8.033086010999999971e+00 0.000000000000000000e+00 0.000000000000000000e+00 2.879190083000000122e+00 7.574244335999999578e+00 0.000000000000000000e+00 0.000000000000000000e+00 0.000000000000000000e+00 2.000000000000000000e+01
8.319436170999999547e+00 0.000000000000000000e+00 0.000000000000000000e+00 -4.165781023000000083e+00 7.215344895000000314e+00 0.000000000000000000e+00 0.000000000000000000e+00 0.000000000000000000e+00 2.000000000000000000e+01
8.003057547999999244e+00 0.000000000000000000e+00 0.000000000000000000e+00 -4.303814012000000133e+00 7.454425062000000324e+00 0.000000000000000000e+00 0.000000000000000000e+00 0.000000000000000000e+00 2.000000000000000000e+01
8.241647584000000748e+00 0.000000000000000000e+00 0.000000000000000000e+00 -4.621867851000000194e+00 8.005310508999999186e+00 0.000000000000000000e+00 0.000000000000000000e+00 0.000000000000000000e+00 2.000000000000000000e+01
7.882430155999999855e+00 0.000000000000000000e+00 0.000000000000000000e+00 2.887407617000000037e+00 7.686286551000000244e+00 0.000000000000000000e+00 0.000000000000000000e+00 0.000000000000000000e+00 2.000000000000000000e+01
8.964364298999999647e+00 0.000000000000000000e+00 0.000000000000000000e+00 -4.013297599000000382e+00 6.951235838999999750e+00 0.000000000000000000e+00 0.000000000000000000e+00 0.000000000000000000e+00 2.000000000000000000e+01
8.210139299999999807e+00 0.000000000000000000e+00 0.000000000000000000e+00 -4.234264269999999719e+00 7.333961366999999676e+00 0.000000000000000000e+00 0.000000000000000000e+00 0.000000000000000000e+00 2.000000000000000000e+01
8.267672182000000092e+00 0.000000000000000000e+00 0.000000000000000000e+00 3.694043481000000018e+00 9.661899383999999813e+00 0.000000000000000000e+00 0.000000000000000000e+00 0.000000000000000000e+00 2.000000000000000000e+01
8.146831418999999741e+00 0.000000000000000000e+00 0.000000000000000000e+00 -4.181312997000000031e+00 7.242247064999999928e+00 0.000000000000000000e+00 0.000000000000000000e+00 0.000000000000000000e+00 2.000000000000000000e+01
7.675570446000000047e+00 0.000000000000000000e+00 0.000000000000000000e+00 -4.296580050000000206e+00 7.441895470999999596e+00 0.000000000000000000e+00 0.000000000000000000e+00 0.000000000000000000e+00 2.000000000000000000e+01
7.314272779000000391e+00 0.000000000000000000e+00 0.000000000000000000e+00 2.799364560999999973e+00 7.321835506000000215e+00 0.000000000000000000e+00 0.000000000000000000e+00 0.000000000000000000e+00 2.000000000000000000e+01
8.478278411999999875e+00 0.000000000000000000e+00 0.000000000000000000e+00 -3.948325768000000124e+00 6.838701319000000112e+00 0.000000000000000000e+00 0.000000000000000000e+00 0.000000000000000000e+00 2.000000000000000000e+01
8.419278482999999369e+00 0.000000000000000000e+00 0.000000000000000000e+00 -4.116182105000000035e+00 7.129437042000000169e+00 0.000000000000000000e+00 0.000000000000000000e+00 0.000000000000000000e+00 2.000000000000000000e+01
8.470122171999999949e+00 0.000000000000000000e+00 0.000000000000000000e+00 -4.387854411000000177e+00 7.599987313999999827e+00 0.000000000000000000e+00 0.000000000000000000e+00 0.000000000000000000e+00 2.000000000000000000e+01
7.866543347000000352e+00 0.000000000000000000e+00 0.000000000000000000e+00 2.767512083000000178e+00 7.280454609999999604e+00 0.000000000000000000e+00 0.000000000000000000e+00 0.000000000000000000e+00 2.000000000000000000e+01
8.519629437000000749e+00 0.000000000000000000e+00 0.000000000000000000e+00 -4.461375783000000261e+00 7.727330074000000160e+00 0.000000000000000000e+00 0.000000000000000000e+00 0.000000000000000000e+00 2.000000000000000000e+01
7.642803086999999884e+00 0.000000000000000000e+00 0.000000000000000000e+00 2.757978295000000024e+00 7.213588286000000238e+00 0.000000000000000000e+00 0.000000000000000000e+00 0.000000000000000000e+00 2.000000000000000000e+01
9.006527170000000027e+00 0.000000000000000000e+00 0.000000000000000000e+00 -4.224391420999999980e+00 7.316861088999999652e+00 0.000000000000000000e+00 0.000000000000000000e+00 0.000000000000000000e+00 2.000000000000000000e+01
8.335018604000000053e+00 0.000000000000000000e+00 0.000000000000000000e+00 2.953780147999999883e+00 7.862970401000000109e+00 0.000000000000000000e+00 0.000000000000000000e+00 0.000000000000000000e+00 2.000000000000000000e+01
9.093239192000000415e+00 0.000000000000000000e+00 0.000000000000000000e+00 -4.438284504000000297e+00 7.687334801999999634e+00 0.000000000000000000e+00 0.000000000000000000e+00 0.000000000000000000e+00 2.000000000000000000e+01
8.847185610000000366e+00 0.000000000000000000e+00 0.000000000000000000e+00 -4.148291460000000264e+00 7.185052082000000340e+00 0.000000000000000000e+00 0.000000000000000000e+00 0.000000000000000000e+00 2.000000000000000000e+01
7.858036961999999903e+00 0.000000000000000000e+00 0.000000000000000000e+00 3.080548888000000041e+00 8.057282906999999383e+00 0.000000000000000000e+00 0.000000000000000000e+00 0.000000000000000000e+00 2.000000000000000000e+01
8.645685661999999994e+00 0.000000000000000000e+00 0.000000000000000000e+00 -3.628616157000000175e+00 6.284947988999999957e+00 0.000000000000000000e+00 0.000000000000000000e+00 0.000000000000000000e+00 2.000000000000000000e+01
7.603593735999999659e+00 0.000000000000000000e+00 0.000000000000000000e+00 2.872146531999999919e+00 7.512199287999999697e+00 0.000000000000000000e+00 0.000000000000000000e+00 0.000000000000000000e+00 2.000000000000000000e+01
8.189837499999999437e+00 0.000000000000000000e+00 0.000000000000000000e+00 -4.050684722999999821e+00 7.015992242000000267e+00 0.000000000000000000e+00 0.000000000000000000e+00 0.000000000000000000e+00 2.000000000000000000e+01
9.159315704999999141e+00 0.000000000000000000e+00 0.000000000000000000e+00 -3.861315378000000020e+00 6.687994890999999775e+00 0.000000000000000000e+00 0.000000000000000000e+00 0.000000000000000000e+00 2.000000000000000000e+01
8.537648965000000700e+00 0.000000000000000000e+00 0.000000000000000000e+00 -4.290661788999999615e+00 7.431644741999999582e+00 0.000000000000000000e+00 0.000000000000000000e+00 0.000000000000000000e+00 2.000000000000000000e+01
8.135649737999999687e+00 0.000000000000000000e+00 0.000000000000000000e+00 3.531468094000000058e+00 9.236677795000000302e+00 0.000000000000000000e+00 0.000000000000000000e+00 0.000000000000000000e+00 2.000000000000000000e+01
9.424562776000000142e+00 0.000000000000000000e+00 0.000000000000000000e+00 -3.740114065000000210e+00 6.478068044999999664e+00 0.000000000000000000e+00 0.000000000000000000e+00 0.000000000000000000e+00 2.000000000000000000e+01
7.772221424999999684e+00 0.000000000000000000e+00 0.000000000000000000e+00 2.758184640000000076e+00 7.380137165999999915e+00 0.000000000000000000e+00 0.000000000000000000e+00 0.000000000000000000e+00 2.000000000000000000e+01
8.668681905999999771e+00 0.000000000000000000e+00 0.000000000000000000e+00 -3.975962725000000031e+00 6.886569934999999809e+00 0.000000000000000000e+00 0.000000000000000000e+00 0.000000000000000000e+00 2.000000000000000000e+01
7.608000452999999830e+00 0.000000000000000000e+00 0.000000000000000000e+00 3.595844110999999899e+00 9.405055509000000313e+00 0.000000000000000000e+00 0.000000000000000000e+00 0.000000000000000000e+00 2.000000000000000000e+01
8.198993199000000232e+00 0.000000000000000000e+00 0.000000000000000000e+00 -3.961964828000000161e+00 6.862324864999999718e+00 0.000000000000000000e+00 0.000000000000000000e+00 0.000000000000000000e+00 2.000000000000000000e+01
7.870035880999999733e+00 0.000000000000000000e+00 0.000000000000000000e+00 3.039408138000000204e+00 8.090912332000000262e+00 0.000000000000000000e+00 0.000000000000000000e+00 0.000000000000000000e+00 2.000000000000000000e+01
8.368146517999999645e+00 0.000000000000000000e+00 0.000000000000000000e+00 -4.066579721000000092e+00 7.043523187999999990e+00 0.000000000000000000e+00 0.000000000000000000e+00 0.000000000000000000e+00 2.000000000000000000e+01
8.304267477999999869e+00 0.000000000000000000e+00 0.000000000000000000e+00 2.824535485999999818e+00 7.518920775999999861e+00 0.000000000000000000e+00 0.000000000000000000e+00 0.000000000000000000e+00 2.000000000000000000e+01
8.282257336000000691e+00 0.000000000000000000e+00 0.000000000000000000e+00 3.081895907999999906e+00 8.204014884999999424e+00 0.000000000000000000e+00 0.000000000000000000e+00 0.000000000000000000e+00 2.000000000000000000e+01
