-6.487424760000000390e+01
-6.747901908000000049e+01
-6.320321794000000182e+01
-6.541344132000000400e+01
-6.688201123999999709e+01
-6.481529337000000623e+01
-6.644465255999999442e+01
-6.493833646000000215e+01
-6.526174536000000614e+01
-6.505343070000000694e+01
-6.777462705000000653e+01
-6.650713371000000507e+01
-6.517851090000000625e+01
-6.440347692000000279e+01
-6.580589011000000710e+01
-6.802313710999999330e+01
-6.481789965999999481e+01
-6.476828231000000358e+01
-6.390105024999999728e+01
-6.705083822000000282e+01
-6.780648132999999689e+01
-6.592468037000000436e+01
-6.711466355999999678e+01
-6.359712899000000164e+01
-6.506108991000000685e+01
-6.550034719999999311e+01
-6.681922351000000049e+01
-6.561190550000000599e+01
-6.477300214999999639e+01
-6.625036072000000331e+01
-6.539198247000000208e+01
-6.583035015000000101e+01
-6.549121685999999443e+01
-6.645494949999999790e+01
-6.505380196999999498e+01
-6.442193512999999427e+01
-6.556112168999999312e+01
-6.780247864999999763e+01
-6.573379074000000344e+01
-6.527815381000000627e+01
-6.481250339000000338e+01
-6.549048172000000534e+01
-6.879526834000000690e+01
-6.429378371999999331e+01
-6.728408016000000202e+01
-6.789676504999999906e+01
-6.732930958000000032e+01
-6.467837547999999970e+01
-6.341810398999999876e+01
-6.535297382000000255e+01
-6.769298100999999690e+01
-6.732080618000000527e+01
-6.481580845999999951e+01
-6.788758738999999309e+01
-6.517398599999999931e+01
-6.396708051000000239e+01
-6.688518458999999439e+01
-6.541822437999999806e+01
-6.680054911999999945e+01
-6.601155099000000348e+01
-6.221291873999999922e+01
-6.785829024999999604e+01
-6.493205376000000228e+01
-6.472004189999999824e+01
-6.607795122999999649e+01
-6.317062614999999681e+01
-6.765326928999999723e+01
-6.664302096999999492e+01
-6.468503035999999895e+01
-6.517671742999999651e+01
-6.522946847000000048e+01
-6.694162590999999907e+01
-6.541779898999999432e+01
-6.382444987000000225e+01
-6.635162796999999557e+01
-6.712300190999999927e+01
-6.521091321000000107e+01
-6.655619667999999933e+01
-6.627681277000000648e+01
-6.474228103999999462e+01
-6.576968619000000160e+01
-6.587095401000000550e+01
-6.482247725999999943e+01
-6.665460434999999961e+01
-6.521763710999999830e+01
-6.489060419000000479e+01
-6.481046702999999809e+01
-6.633932575000000043e+01
-6.262111292000000162e+01
-6.518179911999999376e+01
-6.297691923000000003e+01
-6.444410424000000148e+01
-6.649161055999999803e+01
-6.611827271999999311e+01
-6.340778582000000085e+01
-6.529913732999999354e+01
-6.588560603000000526e+01
-6.604372105999999576e+01
-6.390514611999999772e+01
-6.488104808999999307e+01
