4.047839999999999883e+00 2.337019999999999875e+00 4.091569999999999929e+00 2.285169999999999924e+00 1.305949999999999944e+00 8.007400000000000517e+00 2.102980000000000071e+00 1.180029999999999912e+00 2.753800000000000026e+00 6.071800000000000530e-01 4.907699999999999840e-01 6.066329999999999778e+00 4.272859999999999658e+00 2.485710000000000086e+00 9.325519999999999143e+00
4.047839999999999883e+00 2.337019999999999875e+00 4.055450000000000443e+00 2.573929999999999829e+00 1.486059999999999937e+00 7.976740000000000386e+00 2.108779999999999877e+00 1.217510000000000092e+00 2.703479999999999883e+00 9.107600000000000140e-01 5.258300000000000196e-01 6.066329999999999778e+00 4.575599999999999667e+00 2.641719999999999846e+00 9.296329999999999316e+00
4.047839999999999883e+00 2.337019999999999875e+00 4.016099999999999781e+00 2.566809999999999814e+00 1.466269999999999962e+00 7.957639999999999603e+00 2.118059999999999832e+00 1.150090000000000057e+00 2.684120000000000061e+00 6.678899999999999837e-01 7.361600000000000366e-01 6.066329999999999778e+00 4.555979999999999919e+00 2.677400000000000002e+00 9.289179999999999993e+00
4.047839999999999883e+00 2.337019999999999875e+00 4.033820000000000405e+00 2.690890000000000004e+00 1.473910000000000053e+00 7.962690000000000268e+00 2.133719999999999839e+00 1.166309999999999958e+00 2.686339999999999950e+00 8.500499999999999723e-01 7.011100000000000110e-01 6.066329999999999778e+00 4.677539999999999587e+00 2.673150000000000137e+00 9.289970000000000283e+00
4.047839999999999883e+00 2.337019999999999875e+00 4.104289999999999772e+00 2.122479999999999922e+00 1.214730000000000087e+00 8.004459999999999908e+00 2.083309999999999995e+00 1.156930000000000014e+00 2.778430000000000177e+00 3.643100000000000227e-01 4.907699999999999840e-01 6.066329999999999778e+00 4.106740000000000279e+00 2.415210000000000079e+00 9.327270000000000394e+00
4.018858662090217138e+00 2.304850820003578882e+00 3.975872953374045782e+00 2.259332436202214467e+00 1.464045679547032908e+00 7.942201452514550120e+00 2.045430031055107012e+00 1.091676376525223979e+00 2.671909121282881383e+00 4.334869161960217099e+00 7.412057737923051226e-01 6.065929207935356615e+00 4.259612724688015106e+00 2.696901524655544335e+00 9.271372898971680598e+00
4.099600327998492055e+00 2.270118046705754011e+00 4.062111665685165462e+00 2.103627558832223521e+00 1.177506310119491584e+00 7.968038613225362887e+00 2.087663949235884608e+00 1.060494649640192799e+00 2.756715468477905162e+00 4.154670762110485249e+00 5.140105347872262476e-01 6.064111664678680569e+00 4.115423572681674358e+00 2.413202921572623172e+00 9.295810985020583672e+00
4.047839999999999883e+00 2.337019999999999875e+00 4.039869999999999628e+00 2.714560000000000084e+00 1.452830000000000066e+00 7.968410000000000437e+00 2.132690000000000197e+00 1.179740000000000011e+00 2.686850000000000183e+00 9.107600000000000140e-01 6.660500000000000309e-01 6.066329999999999778e+00 4.700389999999999624e+00 2.644899999999999807e+00 9.293200000000000571e+00
4.102531495298243236e+00 2.266975578417989023e+00 4.219873943975386510e+00 1.802095632393315272e+00 7.475549045030234208e-01 8.072265189713629496e+00 2.096513337165375912e+00 1.072939578989035914e+00 2.894724926729054015e+00 4.159094956200184434e+00 9.083202283371127894e-02 6.064116905431336413e+00 3.787174324738434184e+00 1.956697243624215599e+00 9.383430109791161655e+00
4.047839999999999883e+00 2.337019999999999875e+00 4.075239999999999974e+00 2.261109999999999953e+00 1.297690000000000010e+00 7.991679999999999673e+00 2.098440000000000083e+00 1.157799999999999940e+00 2.746579999999999799e+00 4.857400000000000051e-01 5.608899999999999997e-01 6.066329999999999778e+00 4.244659999999999656e+00 2.498709999999999987e+00 9.316079999999999472e+00
4.047839999999999883e+00 2.337019999999999875e+00 4.175670000000000215e+00 1.915210000000000079e+00 9.768900000000000361e-01 8.044529999999999959e+00 2.057739999999999903e+00 1.156260000000000066e+00 2.848980000000000068e+00 1.821500000000000064e-01 3.155000000000000027e-01 6.066329999999999778e+00 3.902190000000000047e+00 2.177239999999999842e+00 9.366229999999999833e+00
4.100226271532164013e+00 2.269448967623457047e+00 4.095449223002314731e+00 2.092112037352823251e+00 1.080542674912698953e+00 7.981899533560663507e+00 2.089099190470415923e+00 1.061963951368097847e+00 2.786583895537779743e+00 4.155408077804596978e+00 4.434857812279925371e-01 6.064112652892005073e+00 4.102172285089572767e+00 2.316863967061272511e+00 9.308720385502837757e+00
4.018788665589954512e+00 2.304320867247279025e+00 4.021969907184097082e+00 2.082871859010509308e+00 1.323027314647327035e+00 7.957663504712874314e+00 2.019960804484600470e+00 1.092936445715446458e+00 2.718546661135837983e+00 4.153767716806109789e+00 6.354326408883385069e-01 6.065924875096379232e+00 4.088443582931152953e+00 2.557772815028992230e+00 9.286266607974797083e+00
4.019088650591079670e+00 2.306715263125970417e+00 3.813683669334893445e+00 2.129945005412027470e+00 1.869777991371622594e+00 7.890886096187338161e+00 2.013455429745206082e+00 1.089640579838255796e+00 2.526946195667667094e+00 4.149537028335245736e+00 1.058529401651394419e+00 6.065922253690220423e+00 4.145440233169882305e+00 3.098170700417540946e+00 9.223956560396992188e+00
4.047839999999999883e+00 2.337019999999999875e+00 4.050440000000000040e+00 2.611769999999999925e+00 1.487729999999999997e+00 7.977459999999999773e+00 2.120639999999999858e+00 1.201210000000000111e+00 2.697000000000000064e+00 9.107600000000000140e-01 5.959400000000000253e-01 6.066329999999999778e+00 4.605299999999999727e+00 2.657119999999999926e+00 9.297390000000000043e+00
4.019108649591155213e+00 2.306861151139818489e+00 3.800994507947023315e+00 2.195851110189167343e+00 1.920587827324751418e+00 7.883488932979673791e+00 2.020066699189997816e+00 1.089686868099354777e+00 2.514735922381403643e+00 4.209907509886627430e+00 1.093787107680391113e+00 6.065927031466199715e+00 4.210422184153557623e+00 3.147389942911933858e+00 9.216661143024863279e+00
4.047839999999999883e+00 2.337019999999999875e+00 4.079039999999999999e+00 2.367100000000000204e+00 1.345499999999999918e+00 7.996520000000000294e+00 2.108509999999999884e+00 1.181570000000000009e+00 2.739180000000000170e+00 6.678899999999999837e-01 5.258300000000000196e-01 6.066329999999999778e+00 4.354940000000000033e+00 2.526229999999999976e+00 9.315450000000000230e+00
4.094447815965525095e+00 2.275648361101714645e+00 3.784122969255918179e+00 2.121384820071689159e+00 1.936153932354009344e+00 7.869465758690327384e+00 2.079798215423594776e+00 1.058377298581109294e+00 2.500867213342000905e+00 4.148771936632562607e+00 1.078258320115180746e+00 6.064114901930247825e+00 4.138077509905127016e+00 3.162221523808218304e+00 9.203554081575305190e+00
4.018968656590629962e+00 2.305768526091715565e+00 3.896038227741989601e+00 2.373024951718547104e+00 1.678638345188570913e+00 7.920343651425976184e+00 2.047179743571668542e+00 1.088564758539967148e+00 2.597758511443021501e+00 4.393829414021310775e+00 9.174958482143746874e-01 6.065923112568318842e+00 4.381306940129353400e+00 2.909336798692165438e+00 9.251880485752611349e+00
4.018818664090066939e+00 2.304498885952713128e+00 4.006490930815147067e+00 2.134224491443075244e+00 1.364062985578098131e+00 7.954404401537573222e+00 2.029291637954590222e+00 1.092071399931604514e+00 2.703585743966520294e+00 4.214138198357491483e+00 6.706903469173348675e-01 6.065929652872359412e+00 4.136461482096213338e+00 2.598262393608622212e+00 9.283241250769776798e+00
4.047839999999999883e+00 2.337019999999999875e+00 4.030210000000000292e+00 2.586930000000000174e+00 1.449740000000000029e+00 7.963199999999999612e+00 2.124280000000000168e+00 1.157480000000000064e+00 2.691790000000000127e+00 7.286099999999999799e-01 7.011100000000000110e-01 6.066329999999999778e+00 4.573780000000000179e+00 2.655159999999999965e+00 9.292339999999999378e+00
4.018938658090516647e+00 2.305489249034304855e+00 3.920336622841567475e+00 2.233732416171217317e+00 1.600139679073385501e+00 7.924412712611630383e+00 2.033139245579018262e+00 1.089250672814344956e+00 2.623348072551539456e+00 4.273088450918548276e+00 8.469803213509939921e-01 6.065923556357324387e+00 4.241588825860428180e+00 2.832402577463064119e+00 9.255207458702184198e+00
4.047839999999999883e+00 2.337019999999999875e+00 4.107829999999999870e+00 2.218799999999999883e+00 1.272850000000000037e+00 8.024990000000000734e+00 2.095680000000000209e+00 1.192770000000000108e+00 2.769200000000000106e+00 6.071800000000000530e-01 4.206599999999999784e-01 6.066329999999999778e+00 4.211009999999999920e+00 2.439249999999999918e+00 9.339520000000000266e+00
4.018908659590405108e+00 2.305222141347992970e+00 3.943575087798916190e+00 2.477391333529908035e+00 1.575310059192248868e+00 7.937758534735017690e+00 2.066864259370482682e+00 1.089769337304881791e+00 2.636294880340017244e+00 4.515970607114326185e+00 8.469790215016596013e-01 6.065923541433369870e+00 4.479189446126399687e+00 2.807372266025379925e+00 9.268560977285600799e+00
4.047839999999999883e+00 2.337019999999999875e+00 3.948420000000000041e+00 2.556830000000000158e+00 1.614889999999999937e+00 7.936519999999999797e+00 2.097770000000000135e+00 1.136409999999999920e+00 2.632559999999999789e+00 5.464599999999999458e-01 8.763800000000000479e-01 6.066329999999999778e+00 4.563290000000000290e+00 2.832500000000000018e+00 9.272579999999999600e+00
4.018738668089767430e+00 2.303905460633977054e+00 4.058107519689568399e+00 2.132170594135373243e+00 1.252237803215652034e+00 7.971101688606289315e+00 2.041669019101003624e+00 1.096890513184737959e+00 2.747593970281720477e+00 4.275908909899125199e+00 5.649158141756233098e-01 6.065925303961431148e+00 4.123442333037393936e+00 2.482946424581917277e+00 9.296518236316810402e+00
4.018888660590329565e+00 2.305087619067530458e+00 3.955274314431307392e+00 2.218582773634408145e+00 1.508893021221725528e+00 7.935265867079755786e+00 2.035395732757479426e+00 1.090249511413844408e+00 2.655041628474875015e+00 4.273793515666191922e+00 7.764691939776687812e-01 6.065924050658175304e+00 4.224143298115009770e+00 2.741742022353157449e+00 9.265277290321799697e+00
4.019018654090817932e+00 2.306132614696703165e+00 3.864370320647618762e+00 2.386337386113466685e+00 1.774620895666473741e+00 7.907424731415472863e+00 2.044479378586542051e+00 1.087911867392006515e+00 2.569519154826837237e+00 4.393124249278666404e+00 9.880169744287347067e-01 6.065922733067115935e+00 4.396686271182024264e+00 3.003639354985933707e+00 9.239002281187032040e+00
4.047839999999999883e+00 2.337019999999999875e+00 4.162110000000000198e+00 1.941619999999999902e+00 1.120989999999999931e+00 8.069530000000000314e+00 2.068919999999999870e+00 1.194490000000000052e+00 2.827869999999999884e+00 4.250200000000000089e-01 2.453899999999999970e-01 6.066329999999999778e+00 3.940560000000000063e+00 2.275079999999999991e+00 9.380869999999999820e+00
4.018558677089091979e+00 2.302437940457462417e+00 4.185769085118523414e+00 1.898122696237723117e+00 8.771963776301053839e-01 8.024899556449280880e+00 2.014696167709858710e+00 1.103688490644012310e+00 2.865459782501780239e+00 4.096922858977948501e+00 2.475893014696110284e-01 6.065922224425708720e+00 3.889826213551362155e+00 2.102787949647638044e+00 9.345157017674198485e+00
4.047839999999999883e+00 2.337019999999999875e+00 3.978569999999999940e+00 2.512509999999999799e+00 1.532540000000000013e+00 7.945260000000000211e+00 2.100919999999999899e+00 1.140349999999999975e+00 2.659079999999999888e+00 5.464599999999999458e-01 8.062700000000000422e-01 6.066329999999999778e+00 4.511359999999999815e+00 2.749699999999999811e+00 9.280170000000000030e+00
4.018898660090367336e+00 2.305143973695927162e+00 3.950374638506732428e+00 2.109514226925414793e+00 1.508216866750300422e+00 7.933998020906557258e+00 2.017507727135401829e+00 1.089980735839199077e+00 2.653288427244272274e+00 4.152357487315821771e+00 7.764648944760238480e-01 6.065924001294326295e+00 4.120469081696244373e+00 2.741657273320674104e+00 9.264236248748904501e+00
4.018888660590329565e+00 2.305119305354543346e+00 3.952514496325124416e+00 2.399231341431817821e+00 1.546943862773314082e+00 7.935262711033532312e+00 2.060258989625713522e+00 1.090143882448767476e+00 2.646699866045631122e+00 4.455610125062981375e+00 8.117213006556857069e-01 6.065928764146351959e+00 4.399325239236920204e+00 2.778430977409611202e+00 9.265018482236486719e+00
4.047839999999999883e+00 2.337019999999999875e+00 4.057470000000000354e+00 2.518969999999999931e+00 1.425659999999999927e+00 7.982090000000000352e+00 2.120999999999999996e+00 1.182010000000000005e+00 2.711370000000000058e+00 7.893299999999999761e-01 5.959400000000000253e-01 6.066329999999999778e+00 4.506689999999999863e+00 2.608140000000000125e+00 9.303169999999999717e+00
4.047839999999999883e+00 2.337019999999999875e+00 4.131350000000000300e+00 1.909620000000000095e+00 1.102519999999999945e+00 8.437390000000000612e+00 2.107029999999999959e+00 1.216499999999999915e+00 2.760269999999999779e+00 1.092919999999999892e+00 6.310000000000000053e-01 6.066329999999999778e+00 3.910730000000000040e+00 2.257859999999999978e+00 9.721700000000000230e+00
4.018818664090066939e+00 2.304533212763644201e+00 4.003501127866782916e+00 2.048935755773252598e+00 1.367547397775883855e+00 7.951194192902741875e+00 2.009495027760355157e+00 1.091640224212152788e+00 2.702990754625041347e+00 4.092692070512083724e+00 6.706959462683144135e-01 6.065929717160162049e+00 4.061882910931553070e+00 2.602779637799199630e+00 9.280412924770107708e+00
4.018738668089767430e+00 2.303919926112830474e+00 4.056847602728050006e+00 2.062069899082504154e+00 1.240992026414950544e+00 7.967922371501392931e+00 2.021510626995412174e+00 1.094599355529435769e+00 2.750147834866183860e+00 4.154472781553754324e+00 5.649215135150131850e-01 6.065925369397230149e+00 4.064280391060543174e+00 2.474861036376099666e+00 9.295025313315083082e+00
4.018828663590105599e+00 2.304611495221097428e+00 3.996691577818001662e+00 2.296045600589884383e+00 1.411803753414923701e+00 7.951172278265348226e+00 2.055680118563543157e+00 1.093534462330726598e+00 2.687991512995832721e+00 4.395944708259243328e+00 7.059524672533641354e-01 6.065924480671221808e+00 4.290223694177802471e+00 2.644859597936215945e+00 9.279385957703237153e+00
4.047839999999999883e+00 2.337019999999999875e+00 4.162829999999999586e+00 1.912400000000000100e+00 1.061630000000000074e+00 8.050890000000000768e+00 2.066819999999999879e+00 1.160320000000000018e+00 2.835090000000000110e+00 2.428700000000000025e-01 3.505499999999999727e-01 6.066329999999999778e+00 3.897190000000000154e+00 2.253039999999999932e+00 9.369109999999999161e+00
4.047839999999999883e+00 2.337019999999999875e+00 4.114390000000000214e+00 2.186949999999999950e+00 1.262629999999999919e+00 8.023930000000000007e+00 2.085710000000000175e+00 1.204180000000000028e+00 2.776209999999999845e+00 6.071800000000000530e-01 3.505499999999999727e-01 6.066329999999999778e+00 4.186569999999999681e+00 2.417120000000000157e+00 9.337630000000000763e+00
4.018988655590705505e+00 2.305876183911450550e+00 3.886678846895275097e+00 2.450349485588504184e+00 1.718596862624007127e+00 7.918542278017783431e+00 2.053455629785201797e+00 1.088123935792250085e+00 2.587612781920711313e+00 4.454199795577692633e+00 9.527635530844060785e-01 6.065928005143946145e+00 4.460266492250442028e+00 2.948800640097220427e+00 9.250163438754482215e+00
4.047839999999999883e+00 2.337019999999999875e+00 4.237110000000000376e+00 1.527539999999999898e+00 8.778500000000000192e-01 8.199040000000000106e+00 2.055600000000000094e+00 1.174709999999999921e+00 2.901940000000000186e+00 1.821500000000000064e-01 1.752799999999999914e-01 6.066329999999999778e+00 3.516960000000000086e+00 2.038959999999999884e+00 9.500629999999999242e+00
4.047839999999999883e+00 2.337019999999999875e+00 4.186749999999999972e+00 2.023919999999999941e+00 1.168509999999999938e+00 7.947440000000000282e+00 2.023919999999999941e+00 1.168509999999999938e+00 2.859560000000000102e+00 0.000000000000000000e+00 0.000000000000000000e+00 6.066329999999999778e+00 4.047839999999999883e+00 2.337019999999999875e+00 9.275309999999999278e+00
4.047839999999999883e+00 2.337019999999999875e+00 4.036340000000000039e+00 2.405130000000000212e+00 1.391750000000000043e+00 7.967950000000000088e+00 2.105300000000000171e+00 1.150390000000000024e+00 2.709210000000000118e+00 5.464599999999999458e-01 6.660500000000000309e-01 6.066329999999999778e+00 4.392070000000000363e+00 2.601259999999999906e+00 9.297319999999999141e+00
4.019068651591005015e+00 2.306561338734981703e+00 3.827072784590273447e+00 2.063577523703157723e+00 1.846211945714920422e+00 7.889115428593161283e+00 2.006818961560320247e+00 1.089106814502825094e+00 2.539780913607602386e+00 4.089166546783864042e+00 1.023271580817010529e+00 6.065927475255204371e+00 4.080173296435139818e+00 3.074563582011521579e+00 9.221495375757994495e+00
4.047839999999999883e+00 2.337019999999999875e+00 4.050720000000000098e+00 2.515559999999999796e+00 1.411529999999999951e+00 7.975459999999999994e+00 2.121630000000000127e+00 1.167610000000000037e+00 2.709400000000000031e+00 7.286099999999999799e-01 6.310000000000000053e-01 6.066329999999999778e+00 4.500840000000000174e+00 2.606549999999999923e+00 9.300169999999999604e+00
4.047839999999999883e+00 2.337019999999999875e+00 4.080110000000000348e+00 2.382569999999999855e+00 1.364449999999999941e+00 8.002019999999999911e+00 2.107260000000000133e+00 1.194770000000000110e+00 2.736489999999999867e+00 7.286099999999999799e-01 4.907699999999999840e-01 6.066329999999999778e+00 4.375949999999999562e+00 2.532840000000000202e+00 9.319409999999999528e+00
4.018758667089842973e+00 2.304073046866105035e+00 4.043528482859422013e+00 2.191320136732176849e+00 1.293636243709453737e+00 7.966556665474322507e+00 2.050169394092879127e+00 1.097075871869376495e+00 2.731885063026423310e+00 4.336279391450506004e+00 6.001735202046197815e-01 6.065930081737409552e+00 4.180562777086588078e+00 2.524241821370833527e+00 9.292212045927520592e+00
4.018968656590629962e+00 2.305721685493522521e+00 3.900117958855477518e+00 2.179562224613086130e+00 1.637940673436570238e+00 7.920206411182842743e+00 2.023995202769728774e+00 1.088800972159463809e+00 2.606641808743527911e+00 4.212022804124559094e+00 8.822437267193804500e-01 6.065928399569102680e+00 4.190531478663969800e+00 2.869928503499883377e+00 9.251538034722944559e+00
4.095671010205180984e+00 2.274341250562565087e+00 3.849868937633382338e+00 2.120972423158033582e+00 1.727797662811263457e+00 7.899828325627531456e+00 2.081545178737345125e+00 1.056907647657861160e+00 2.562156967341704394e+00 4.150246667995795669e+00 9.371988161306754606e-01 6.064116648847799773e+00 4.137934445666716421e+00 2.959080045568140527e+00 9.232589278338192429e+00
4.047839999999999883e+00 2.337019999999999875e+00 4.103430000000000355e+00 2.244180000000000064e+00 1.295679999999999943e+00 8.025290000000000035e+00 2.091209999999999791e+00 1.207359999999999989e+00 2.762869999999999937e+00 6.678899999999999837e-01 3.856100000000000083e-01 6.066329999999999778e+00 4.243149999999999977e+00 2.449790000000000134e+00 9.339399999999999480e+00
4.019038653090892588e+00 2.306340727230699716e+00 3.846261516457027074e+00 2.126626071354582148e+00 1.779516519222381188e+00 7.902020579658700861e+00 2.014317886623440579e+00 1.089046984886123282e+00 2.557621402483041706e+00 4.150242093082889383e+00 9.880182742780695415e-01 6.065922747991070452e+00 4.141246442854155774e+00 3.009403429588020096e+00 9.233978124759211425e+00
4.047839999999999883e+00 2.337019999999999875e+00 4.134809999999999874e+00 2.016179999999999861e+00 1.116859999999999964e+00 8.015140000000000597e+00 2.067070000000000185e+00 1.153680000000000039e+00 2.810599999999999987e+00 2.428700000000000025e-01 4.206599999999999784e-01 6.066329999999999778e+00 4.003320000000000434e+00 2.320660000000000167e+00 9.339050000000000296e+00
4.018908659590405108e+00 2.305236032799907964e+00 3.942365167542219329e+00 2.282812262240260903e+00 1.550310318385590858e+00 7.931761128991005272e+00 2.042981553475925693e+00 1.089856687985752304e+00 2.641856249686916680e+00 4.334163997217573616e+00 8.117269000066652529e-01 6.065928828434154596e+00 4.287094450636067755e+00 2.782985506295450051e+00 9.261860562563814625e+00
4.018838663090142482e+00 2.304727663456501041e+00 3.986582245250958501e+00 2.098602672489497944e+00 1.407141987450596821e+00 7.948288568633723017e+00 2.018653969824700578e+00 1.090977462862300129e+00 2.686812079535433107e+00 4.153062552063465418e+00 7.059537671026986372e-01 6.065924495595176325e+00 4.107208344716517523e+00 2.641494973634741950e+00 9.278007239141032869e+00
4.047839999999999883e+00 2.337019999999999875e+00 4.086030000000000051e+00 2.268629999999999924e+00 1.294519999999999893e+00 8.002090000000000813e+00 2.102829999999999977e+00 1.167359999999999953e+00 2.752289999999999903e+00 5.464599999999999458e-01 5.258300000000000196e-01 6.066329999999999778e+00 4.252830000000000332e+00 2.485510000000000108e+00 9.322800000000000864e+00
4.018768666589879857e+00 2.304102192617611067e+00 4.040998650743416576e+00 2.109481828545293425e+00 1.280070286920421019e+00 7.965340840854248761e+00 2.030984453315937799e+00 1.094447323788350523e+00 2.734185037454758049e+00 4.214843263105136018e+00 6.001792195440096567e-01 6.065930147173209441e+00 4.107394135427215431e+00 2.513732417025379640e+00 9.292781429827877915e+00
4.019018654090817932e+00 2.306125955984215103e+00 3.864950282423555983e+00 2.191408832297509157e+00 1.737495409757845666e+00 7.907598522288475706e+00 2.022528876084230820e+00 1.088804943754615229e+00 2.573659680700027597e+00 4.211317739376915448e+00 9.527548540927055498e-01 6.065927905268252651e+00 4.205422234144807092e+00 2.968077272939794398e+00 9.239474040415869283e+00
4.019008654590779273e+00 2.306027352973133659e+00 3.873529715823041286e+00 2.317133146238959718e+00 1.733654305535959894e+00 7.910894641568509300e+00 2.037952504922067476e+00 1.088459707686995070e+00 2.578836058345666427e+00 4.332753767727284711e+00 9.527591535943507051e-01 6.065927954632101660e+00 4.328031403839577074e+00 2.963735026805240036e+00 9.242764405937553107e+00
4.047839999999999883e+00 2.337019999999999875e+00 4.019309999999999938e+00 2.384930000000000216e+00 1.419559999999999933e+00 7.959480000000000111e+00 2.097090000000000121e+00 1.144879999999999898e+00 2.698040000000000216e+00 4.857400000000000051e-01 7.011100000000000110e-01 6.066329999999999778e+00 4.376809999999999867e+00 2.633840000000000181e+00 9.291240000000000165e+00
4.047839999999999883e+00 2.337019999999999875e+00 4.092789999999999928e+00 2.310540000000000038e+00 1.322319999999999940e+00 8.007839999999999847e+00 2.100340000000000096e+00 1.194989999999999997e+00 2.752209999999999823e+00 6.678899999999999837e-01 4.557200000000000140e-01 6.066329999999999778e+00 4.303429999999999644e+00 2.490159999999999929e+00 9.324009999999999465e+00
4.047839999999999883e+00 2.337019999999999875e+00 4.237490000000000201e+00 1.562699999999999978e+00 8.702499999999999680e-01 8.155329999999999302e+00 2.044719999999999871e+00 1.169640000000000013e+00 2.903830000000000133e+00 1.214400000000000063e-01 1.402200000000000113e-01 6.066329999999999778e+00 3.554300000000000015e+00 2.036329999999999973e+00 9.461660000000000181e+00
4.047839999999999883e+00 2.337019999999999875e+00 4.214109999999999800e+00 1.685629999999999962e+00 9.731999999999999540e-01 8.122989999999999711e+00 2.050069999999999837e+00 1.183610000000000051e+00 2.880679999999999907e+00 2.428700000000000025e-01 1.402200000000000113e-01 6.066329999999999778e+00 3.684060000000000112e+00 2.126990000000000158e+00 9.430270000000000152e+00
4.018668671589504804e+00 2.303328208057932702e+00 4.108324201976966350e+00 2.029709317071156427e+00 1.108527064433736165e+00 7.998063588782754252e+00 2.034916556715682834e+00 1.099567144087895132e+00 2.794297777393593751e+00 4.216253492595424035e+00 4.591469659563242045e-01 6.065931020975263266e+00 4.016645072766917401e+00 2.337841511347168666e+00 9.320923962158429887e+00
4.018938658090516647e+00 2.305503370096995575e+00 3.919106703902942801e+00 2.426293688348298172e+00 1.630948529358799970e+00 7.927046588393660720e+00 2.056844260357908905e+00 1.088943373953222160e+00 2.616754110029465785e+00 4.454904960320337004e+00 8.822424268700459482e-01 6.065928384645149052e+00 4.431515529762629413e+00 2.862656355092562777e+00 9.257724954281197682e+00
4.018768666589879857e+00 2.304122627976626703e+00 4.039218768051748398e+00 2.040981753463426251e+00 1.274762384552378114e+00 7.962929744375476737e+00 2.010153794822825635e+00 1.093396645153414282e+00 2.735253045483479806e+00 4.093397235254728095e+00 6.001748200539542832e-01 6.065930096661364068e+00 4.052123298899956261e+00 2.510557237501878092e+00 9.291224874473712703e+00
4.018868661590254909e+00 2.304917851533034856e+00 3.970043338739778882e+00 2.155855709909189510e+00 1.464226677955155820e+00 7.939963382977048845e+00 2.027158944586592515e+00 1.090711829679577249e+00 2.670317942901107244e+00 4.213433033614847112e+00 7.412114731316949978e-01 6.065929273371155617e+00 4.162089700717316099e+00 2.697736421154329101e+00 9.269632369326210153e+00
4.018588675589205295e+00 2.302696896961245798e+00 4.163240573369648700e+00 1.943738215518775458e+00 9.410296988747518521e-01 8.011851537457966188e+00 2.014151594937816370e+00 1.101366496966283082e+00 2.845971840438634715e+00 4.096217694235305018e+00 3.181104276839711864e-01 6.065921844924505812e+00 3.939595325157990491e+00 2.171254718068138967e+00 9.334602357474054202e+00
4.047839999999999883e+00 2.337019999999999875e+00 3.970530000000000115e+00 2.590679999999999872e+00 1.564149999999999929e+00 7.944969999999999644e+00 2.107660000000000089e+00 1.139129999999999976e+00 2.648880000000000123e+00 6.071800000000000530e-01 8.413300000000000223e-01 6.066329999999999778e+00 4.590939999999999799e+00 2.781060000000000088e+00 9.280419999999999447e+00
4.018688670589580347e+00 2.303523462388503695e+00 4.091335323974390370e+00 2.081352634969812154e+00 1.157523069169402063e+00 7.992495722372634503e+00 2.043924806314462828e+00 1.099988128007597599e+00 2.776801457446089749e+00 4.276613974646768845e+00 4.944046868022980434e-01 6.065925798262281177e+00 4.065668921635750443e+00 2.385773061744101753e+00 9.315193864547392621e+00
4.018918659090442880e+00 2.305363796379472419e+00 3.931245901537768983e+00 2.057333135914741984e+00 1.553134284959930556e+00 7.928423329675908349e+00 2.008305387240894468e+00 1.089358388459284122e+00 2.636760193091626903e+00 4.091281841021795707e+00 8.117281998559998657e-01 6.065928843358109113e+00 4.072123198929952892e+00 2.786069261097789074e+00 9.258985776271746460e+00
4.047839999999999883e+00 2.337019999999999875e+00 4.099499999999999922e+00 2.199749999999999872e+00 1.252399999999999958e+00 8.008250000000000313e+00 2.095410000000000217e+00 1.167159999999999975e+00 2.767799999999999816e+00 4.857400000000000051e-01 4.907699999999999840e-01 6.066329999999999778e+00 4.184090000000000309e+00 2.443350000000000133e+00 9.328200000000000713e+00
4.047839999999999883e+00 2.337019999999999875e+00 4.002480000000000260e+00 2.735990000000000144e+00 1.525910000000000100e+00 7.955449999999999910e+00 2.131400000000000183e+00 1.147480000000000055e+00 2.664610000000000145e+00 7.893299999999999761e-01 8.062700000000000422e-01 6.066329999999999778e+00 4.729460000000000441e+00 2.739609999999999879e+00 9.288629999999999498e+00
4.047839999999999883e+00 2.337019999999999875e+00 4.047460000000000058e+00 2.613259999999999916e+00 1.458550000000000013e+00 7.971169999999999867e+00 2.126230000000000064e+00 1.181729999999999947e+00 2.698209999999999997e+00 8.500499999999999723e-01 6.310000000000000053e-01 6.066329999999999778e+00 4.600819999999999688e+00 2.643639999999999990e+00 9.294069999999999609e+00
4.018918659090442880e+00 2.305325795796134614e+00 3.934555683396995907e+00 2.171021851621060428e+00 1.557835403163976951e+00 7.928097279557863253e+00 2.025545025280540479e+00 1.089469752956328863e+00 2.637721534971902315e+00 4.212727968867203465e+00 8.117226005050203197e-01 6.065928779070305588e+00 4.180543678041516387e+00 2.790569884096425479e+00 9.258467411686513771e+00
4.047839999999999883e+00 2.337019999999999875e+00 4.120739999999999625e+00 2.129090000000000149e+00 1.218779999999999974e+00 8.027480000000000615e+00 2.090549999999999908e+00 1.177529999999999966e+00 2.787080000000000002e+00 4.857400000000000051e-01 4.206599999999999784e-01 6.066329999999999778e+00 4.116430000000000256e+00 2.397100000000000009e+00 9.343170000000000641e+00
4.047839999999999883e+00 2.337019999999999875e+00 4.198850000000000193e+00 1.757919999999999927e+00 1.014930000000000110e+00 8.111879999999999313e+00 2.057399999999999896e+00 1.187840000000000007e+00 2.865190000000000126e+00 3.035900000000000265e-01 1.752799999999999914e-01 6.066329999999999778e+00 3.756050000000000111e+00 2.168559999999999821e+00 9.419309999999999405e+00
4.047839999999999883e+00 2.337019999999999875e+00 4.007690000000000197e+00 2.465790000000000148e+00 1.463160000000000016e+00 7.952969999999999651e+00 2.103349999999999831e+00 1.144930000000000003e+00 2.684190000000000076e+00 5.464599999999999458e-01 7.361600000000000366e-01 6.066329999999999778e+00 4.458700000000000330e+00 2.677639999999999798e+00 9.285610000000000142e+00
4.047839999999999883e+00 2.337019999999999875e+00 4.047349999999999781e+00 2.336679999999999868e+00 1.363240000000000007e+00 7.968370000000000175e+00 2.097960000000000047e+00 1.150719999999999965e+00 2.721929999999999961e+00 4.857400000000000051e-01 6.310000000000000053e-01 6.066329999999999778e+00 4.324709999999999610e+00 2.572319999999999940e+00 9.297200000000000131e+00
4.019138648091267640e+00 2.307092324739770994e+00 3.780885836711541881e+00 2.132568674231865913e+00 1.990669713106029803e+00 7.870722669444482733e+00 2.012674668782278520e+00 1.090068438561710096e+00 2.495969066213318044e+00 4.148831863592601366e+00 1.129050527865754772e+00 6.065921874189017515e+00 4.148885760897802477e+00 3.215874835871465720e+00 9.204266569647368001e+00