-1.809095523999999955e+01
-1.802749379999999846e+01
-1.805910367999999977e+01
-1.802083890999999838e+01
-1.810862157000000039e+01
-1.809535419999999917e+01
-1.811214644000000007e+01
-1.800783164999999997e+01
-1.806375475000000108e+01
-1.809849801000000014e+01
-1.810180709999999848e+01
-1.811084693000000101e+01
-1.810926754999999844e+01
-1.810256783000000169e+01
-1.801702038000000172e+01
-1.809948606000000026e+01
-1.807943962999999954e+01
-1.810614238000000142e+01
-1.808343453999999895e+01
-1.810583035999999879e+01
-1.805048942999999895e+01
-1.809689419000000044e+01
-1.809616185000000144e+01
-1.806971465999999893e+01
-1.806777987999999979e+01
-1.810482920000000107e+01
-1.809892573000000127e+01
-1.808220366000000112e+01
-1.811135347000000095e+01
-1.808941490000000130e+01
-1.807288309000000126e+01
-1.810600303000000011e+01
-1.807968797999999921e+01
-1.804846217000000053e+01
-1.784411416000000017e+01
-1.811074967000000058e+01
-1.810994064999999864e+01
-1.809130014999999858e+01
-1.810723185000000157e+01
-1.810054247000000061e+01
-1.807490814000000157e+01
-1.809249008000000103e+01
-1.802566543000000010e+01
-1.808434645000000174e+01
-1.810487709999999950e+01
-1.805786073000000158e+01
-1.807258326999999909e+01
-1.810042400000000029e+01
-1.810035956999999840e+01
-1.810543068999999861e+01
-1.809136977000000002e+01
-1.810247535999999968e+01
-1.810948319999999967e+01
-1.809286567999999917e+01
-1.810780944000000048e+01
-1.809516663000000136e+01
-1.810726585999999827e+01
-1.809926722000000154e+01
-1.808929789999999826e+01
-1.808861650000000054e+01
-1.808575495999999916e+01
-1.807802115999999870e+01
-1.809616988999999876e+01
-1.810695650999999984e+01
-1.807692066999999980e+01
-1.811177637999999845e+01
-1.810387193000000039e+01
-1.809906618999999850e+01
-1.806066095999999987e+01
-1.810542745000000053e+01
-1.810747531999999893e+01
-1.810269944999999936e+01
-1.802567498000000157e+01
-1.802921801999999829e+01
-1.810192510999999982e+01
-1.810619111000000103e+01
-1.810445564000000118e+01
-1.807849140000000077e+01
-1.809373601000000065e+01
-1.810361401999999842e+01
-1.810936236999999949e+01
-1.807277772000000127e+01
-1.806526745000000034e+01
-1.804336574999999954e+01
-1.810475476999999955e+01
-1.810989810999999960e+01
-1.805257298000000077e+01
-1.808866347000000019e+01
-1.810620826999999977e+01
-1.803817880000000073e+01
-1.806432258999999974e+01
-1.810912320999999991e+01
-1.810780965000000009e+01
-1.810298484000000130e+01
-1.810390633000000093e+01
-1.787972574999999864e+01
-1.809194623999999862e+01
-1.804673372999999970e+01
-1.809077501000000154e+01
-1.810547180000000012e+01
-1.808305501999999976e+01
-1.809803345999999991e+01
-1.801321562000000043e+01
-1.810747127000000134e+01
-1.810434465999999887e+01
-1.804048161000000050e+01
-1.807850429999999875e+01
-1.807277862000000113e+01
-1.805668278999999998e+01
-1.809549074999999974e+01
-1.810735455000000016e+01
-1.803683683999999943e+01
-1.788672108000000094e+01
-1.806492334000000000e+01
-1.805976829000000095e+01
-1.808554154000000125e+01
-1.804757001999999844e+01
-1.807714527999999987e+01
-1.810089607999999828e+01
-1.810776143000000005e+01
-1.810683333000000061e+01
-1.811108100999999948e+01
-1.809895076999999830e+01
-1.810601300000000080e+01
-1.808685368000000082e+01
-1.810914542000000083e+01
-1.810918578000000068e+01
-1.811024923000000086e+01
-1.809533616999999950e+01
-1.807912719999999851e+01
-1.810692609999999902e+01
-1.803315942000000049e+01
-1.809674869999999913e+01
-1.804850847999999885e+01
-1.789809007999999935e+01
-1.785988258000000073e+01
-1.804794787999999883e+01
-1.808522871999999992e+01
-1.810445106999999965e+01
-1.810238650000000149e+01
-1.810116019000000165e+01
-1.811052507000000134e+01
-1.810334216000000040e+01
-1.808822338999999957e+01
-1.810760254999999930e+01
-1.809451834000000048e+01
-1.810102768999999867e+01
-1.809569516999999905e+01
-1.810481631000000036e+01
-1.808996454000000043e+01
-1.811065680999999827e+01
-1.810536297999999888e+01
-1.808556549000000047e+01
-1.811189249999999973e+01
-1.810873113999999973e+01
-1.808644762999999855e+01
-1.809445911999999979e+01
-1.810510963999999845e+01
-1.810994511999999901e+01
-1.811077772999999880e+01
-1.810692879999999860e+01
-1.810976451000000154e+01
-1.809991451999999867e+01
-1.810891110000000026e+01
-1.787175541999999950e+01
-1.811010349000000019e+01
-1.809441981999999882e+01
-1.810224983999999893e+01
-1.808341890999999890e+01
-1.807957409000000126e+01
-1.809213589000000155e+01
-1.806649124999999856e+01
-1.810619400999999939e+01
-1.810312768000000005e+01
-1.811051619999999929e+01
-1.799937960999999831e+01
-1.803280574000000058e+01
-1.810928245999999930e+01
-1.810030065999999849e+01
-1.810121433999999851e+01
-1.811165769000000125e+01
-1.810703163000000160e+01
-1.810388667000000140e+01
-1.807941283999999982e+01
-1.806356471999999869e+01
-1.805556003999999959e+01
-1.806594069999999874e+01
-1.806696224999999956e+01
-1.810582837000000112e+01
-1.807058944999999994e+01
