1.152220000000000050e-01 8.538800000000000556e-02 -1.670000000000000043e-03 1.010000000000000047e-03 -3.129999999999999970e-03 -7.669999999999999951e-04 5.237000000000000335e-03 -1.399999999999999986e-03 7.668999999999999602e-03 -1.215220000000000050e-01 -7.851900000000000546e-02 6.148999999999999952e-03 5.300000000000000078e-05 -2.338999999999999933e-03 -1.137999999999999949e-02
2.575790000000000024e-01 1.487140000000000128e-01 -3.886000000000000131e-03 -5.343999999999999792e-03 -3.086000000000000201e-03 3.246000000000000187e-03 4.445000000000000166e-03 2.566000000000000138e-03 6.368999999999999662e-03 -2.513799999999999923e-01 -1.451340000000000130e-01 4.372000000000000018e-03 -5.300000000000000024e-03 -3.059999999999999786e-03 -1.010199999999999987e-02
1.802330000000000043e-01 1.007340000000000041e-01 -3.050999999999999893e-03 5.500000000000000196e-05 -5.666000000000000029e-03 1.528000000000000061e-03 6.246999999999999949e-03 -5.259999999999999919e-03 1.182099999999999991e-02 -1.858640000000000014e-01 -9.084299999999999320e-02 -9.070000000000000371e-04 -6.710000000000000469e-04 1.034999999999999896e-03 -9.390000000000000777e-03
2.689130000000000131e-01 1.234070000000000028e-01 -6.185000000000000393e-03 2.541999999999999989e-03 -1.031999999999999931e-02 1.556000000000000091e-03 4.144000000000000114e-03 4.609999999999999840e-04 9.362000000000000530e-03 -2.733849999999999891e-01 -1.109600000000000031e-01 2.712000000000000001e-03 -2.213999999999999822e-03 -2.588000000000000023e-03 -7.444000000000000096e-03
2.103999999999999967e-02 3.591699999999999754e-02 -2.543000000000000121e-03 3.011999999999999920e-03 -4.008000000000000278e-03 -3.199999999999999855e-05 4.082999999999999824e-03 -3.856000000000000053e-03 9.650000000000000591e-03 -2.956200000000000147e-02 -2.733599999999999919e-02 -1.998000000000000210e-03 1.427000000000000100e-03 -7.169999999999999724e-04 -5.076999999999999916e-03
8.259622029222550565e-02 3.501455376396716418e-02 -1.705126431796108802e-03 9.481225950553411833e-04 -6.699709102658728613e-03 -7.479655637108670058e-04 3.398010103742113344e-03 -4.857486908037356513e-03 1.506122602157978878e-02 -8.283379841361637741e-02 -2.145757397610248071e-02 -6.899799231314814388e-03 -4.109554527410316446e-03 -1.999782295470858146e-03 -5.709334843654090969e-03
2.455412223656540729e-02 -1.202337563942942368e-02 2.748798178291600447e-03 3.954311545654937751e-04 -6.278055763003623224e-03 7.626781237102320428e-03 1.710742367855374105e-03 -2.611795162114358918e-03 1.224699969714952881e-02 -2.782393488555926636e-02 2.161079382357816020e-02 -1.382040631815700978e-02 1.163619131571116917e-03 -6.975445114204394462e-04 -8.803172335654285349e-03
2.940630000000000188e-01 1.365639999999999910e-01 -3.279999999999999930e-03 3.246999999999999886e-03 -6.388999999999999714e-03 3.109999999999999917e-03 4.003999999999999747e-03 2.233999999999999875e-03 1.121100000000000048e-02 -3.028839999999999866e-01 -1.313519999999999965e-01 -4.882000000000000055e-03 1.569999999999999998e-03 -1.056000000000000081e-03 -6.159000000000000412e-03
-1.341883770980642210e-01 -1.994161726547350744e-01 -4.002980829908620725e-03 7.524849022837051815e-03 -3.900146626019897981e-03 5.627403084821084624e-03 1.610087528420554989e-03 -1.267374554043382935e-04 9.228156574756533545e-03 1.222938603556390919e-01 2.035821585020511082e-01 -1.512952398850603503e-03 2.760569943760309963e-03 -1.380916274698347880e-04 -9.339623241224987923e-03
7.898700000000000165e-02 7.164800000000000335e-02 4.679999999999999915e-04 4.508999999999999987e-03 -1.340000000000000045e-03 -2.910999999999999959e-03 2.804000000000000069e-03 -2.527999999999999865e-03 9.671000000000000776e-03 -8.749700000000000533e-02 -6.734800000000000508e-02 1.677000000000000105e-03 1.196000000000000014e-03 -4.319999999999999838e-04 -8.904999999999999721e-03
-6.344600000000000239e-02 -8.189499999999999558e-02 -1.221999999999999996e-03 -1.984000000000000086e-03 -2.719999999999999979e-04 5.054999999999999598e-03 1.696999999999999941e-03 9.600000000000000243e-05 5.445000000000000187e-03 6.699499999999999900e-02 7.654400000000000093e-02 3.530999999999999851e-03 -3.261000000000000010e-03 5.525999999999999662e-03 -1.280899999999999921e-02
2.185141782822909093e-02 -3.691214143585585389e-02 4.663557174038498489e-03 3.442649445194608492e-03 -4.976247161623853672e-04 4.482900895554747280e-03 1.156460920900146501e-03 -1.888624108678825042e-03 1.196440333299358082e-02 -2.689749646622013185e-02 3.962496995467564703e-02 -1.217639683735411912e-02 4.469782693972306539e-04 -3.275793805823444364e-04 -8.934487516142375005e-03
3.615876210709084021e-02 1.513090670527291424e-02 -2.141430166766816225e-03 1.483145844561611568e-03 -5.441697089671682086e-03 2.952720980387137182e-03 2.246357684923560617e-03 -4.710163284091495838e-03 1.612198728409687185e-02 -3.983438833037398347e-02 -4.345849443443633962e-03 -1.001555275358710119e-02 -5.388730570207066672e-05 -6.321855234238420900e-04 -6.918713798261746581e-03
4.732759367947256268e-02 -1.016328231095598106e-03 -9.280279599097595103e-03 2.637268139889425902e-04 2.955233961241617805e-03 -1.099779711587313240e-02 1.148422580306441209e-03 -3.832109840059062453e-03 1.699912561724175458e-02 -4.708919559907859265e-02 -2.914188874242589194e-03 8.535106035484123221e-03 -1.651547424693096400e-03 4.807382985314597075e-03 -5.256155052554796654e-03
2.770520000000000205e-01 1.567840000000000067e-01 -4.873999999999999860e-03 6.100000000000000387e-03 -3.993000000000000022e-03 1.503999999999999912e-03 5.222000000000000079e-03 -1.392999999999999924e-03 7.054999999999999639e-03 -2.865809999999999746e-01 -1.508440000000000059e-01 4.288000000000000145e-03 -1.793000000000000106e-03 -5.540000000000000219e-04 -7.974000000000000185e-03
6.606807667874703416e-02 -6.249770910670106143e-03 -1.117648730752845293e-02 8.834058308126615904e-04 6.335344785443394050e-04 -6.065126396257686063e-03 8.330083506236772182e-04 -3.656596015378074053e-03 1.389393596746841056e-02 -6.552543381021219693e-02 3.748751737703764214e-03 5.876424966981597109e-03 -2.259057049971181352e-03 5.524092190338850995e-03 -2.529747164760312323e-03
1.485720000000000096e-01 1.018919999999999965e-01 -3.168999999999999942e-03 2.060999999999999898e-03 -4.745000000000000086e-03 -6.840000000000000377e-04 6.578999999999999779e-03 -2.694999999999999913e-03 6.271999999999999797e-03 -1.561960000000000015e-01 -9.372999999999999388e-02 5.756999999999999965e-03 -1.016999999999999892e-03 -7.219999999999999855e-04 -8.177000000000000240e-03
2.687995085207550705e-02 -2.228013091153210196e-02 2.042652627099573060e-03 2.520969836301542632e-04 -8.193102919657335378e-03 3.967405784482732484e-03 2.723519205287381912e-04 -2.409142825025599888e-03 9.721211512975735242e-03 -2.588344994616911116e-02 3.456911777062031399e-02 -7.017314617796523331e-03 -1.520959807566223424e-03 -1.685741427801527425e-03 -8.713932355851850345e-03
1.136642969272269044e-01 2.388314174348454486e-02 -3.640048557344041473e-03 -5.891705422093158288e-04 -6.093466512256695035e-03 -8.112490920561885380e-03 2.810369485038534572e-03 -4.018189742941080320e-03 1.697098746529757118e-02 -1.121454528675314422e-01 -1.682586526283389936e-02 7.418788939214510363e-04 -3.740053002024731638e-03 3.055379658650616247e-03 -5.960315401348308638e-03
4.927217645276450730e-02 2.435144339252047138e-02 -1.735546688657639515e-03 2.447867609679197590e-03 -4.082207093496885604e-03 6.281754621816841144e-04 2.045207742169273361e-03 -3.167991083871743527e-03 1.368253148302169854e-02 -5.287928610179071925e-02 -1.897660287815677513e-02 -5.345213893727321017e-03 -8.859657028222606276e-04 1.875346182466159977e-03 -7.228946428721979775e-03
2.063109999999999944e-01 1.096980000000000038e-01 -2.991999999999999868e-03 2.804000000000000069e-03 -6.623000000000000415e-03 9.039999999999999642e-04 4.967000000000000061e-03 -3.317000000000000070e-03 1.187900000000000067e-02 -2.114449999999999941e-01 -9.832299999999999374e-02 9.110000000000000259e-04 -2.637000000000000021e-03 -1.435000000000000078e-03 -1.070199999999999971e-02
7.499021058320391731e-02 2.391899309806675561e-02 -5.431755044308107447e-03 -1.518994052196037930e-03 -7.253781453806747333e-03 -4.812594486324641915e-03 2.649927506936896812e-03 -3.876782496867606145e-03 1.714562240573260996e-02 -7.392876365422362817e-02 -1.177177814781385674e-02 -1.989277455911175364e-03 -2.192360384721077880e-03 -1.018662248324291942e-03 -4.911018445021821111e-03
1.052040000000000058e-01 7.444499999999999729e-02 -5.249999999999999676e-04 2.944000000000000002e-03 -7.820000000000000345e-04 2.196000000000000035e-03 3.883000000000000167e-03 -8.509999999999999769e-04 3.664999999999999855e-03 -1.128399999999999959e-01 -7.361700000000000188e-02 4.930999999999999620e-03 8.090000000000000403e-04 8.059999999999999673e-04 -1.026799999999999935e-02
1.452725465542538952e-01 4.785869603892852625e-02 -7.099024235455417102e-03 -1.503344834637355314e-03 -4.215447221638740985e-03 -5.058728993506907134e-03 4.604839763767573819e-03 -4.296105497397139684e-03 1.172945140683310378e-02 -1.453234240104447073e-01 -4.009712544288077107e-02 9.435285215529855968e-03 -3.051617422943183906e-03 7.499721241470848733e-04 -9.006983508200285329e-03
1.466179999999999983e-01 6.192299999999999888e-02 -4.513999999999999783e-03 -4.453000000000000361e-03 -6.597000000000000433e-03 -2.586999999999999890e-03 4.736999999999999891e-03 -4.189000000000000015e-03 1.612600000000000144e-02 -1.432229999999999892e-01 -5.079600000000000087e-02 -3.370000000000000166e-03 -3.677999999999999846e-03 -3.409999999999999945e-04 -5.655000000000000304e-03
4.595666222433174297e-02 1.494420198753990126e-02 1.835688468746458782e-03 3.005439731770023423e-03 -7.470445877893215625e-03 3.539468520013481969e-03 3.812699369797146152e-03 -4.191470031822499588e-03 1.220468399787075046e-02 -5.143140849386135249e-02 -1.684279203729842573e-03 -1.151609538435008698e-02 -1.343392832037555284e-03 -1.598006874094343686e-03 -6.063745602280601853e-03
7.125065755618105456e-02 2.815079057855415443e-02 -4.970141307267407667e-03 4.455977206709357927e-04 -8.447088697742735283e-03 -9.960427720735038053e-04 2.110254489913190954e-03 -3.914485982424411453e-03 1.734620276836414468e-02 -6.989389539259337203e-02 -1.559591493898307771e-02 -5.731427227595208181e-03 -3.912614374171815082e-03 -1.933009594039347516e-04 -5.648591461428026546e-03
1.168248189050784674e-01 1.432338202920073293e-02 -1.041224606130637144e-02 -1.967741615378785537e-03 -5.555969243052034240e-03 -6.999246795574958109e-03 2.895175244856545461e-03 -2.754115136778661869e-03 1.313124667024941940e-02 -1.150875757650640235e-01 -8.870878760100484733e-03 4.532456237433082555e-03 -2.664676769492205135e-03 2.857581110730447911e-03 -2.522100508011739764e-04
-1.366599999999999933e-02 -7.889999999999999444e-03 4.042999999999999719e-03 -4.281000000000000083e-03 -2.471999999999999805e-03 5.362999999999999712e-03 2.612999999999999871e-03 1.508999999999999925e-03 9.176000000000000129e-03 1.796999999999999986e-02 1.037500000000000054e-02 -4.255000000000000102e-03 -2.635999999999999888e-03 -1.521999999999999915e-03 -1.432699999999999946e-02
-3.860355987025852753e-02 -1.503480799132329015e-01 -5.541134789141960188e-04 5.617119151063495325e-03 -4.136003102245087472e-03 4.502813207426524349e-03 3.098835062120244149e-03 -9.644818380845880538e-04 8.393480389074557332e-03 2.644652770667117736e-02 1.552377040138233910e-01 -3.507018645066388527e-03 3.441077950403612432e-03 2.108608397391603933e-04 -8.835161472520496051e-03
1.386380000000000112e-01 7.537399999999999656e-02 -1.534999999999999906e-03 -3.615999999999999857e-03 -4.400000000000000265e-03 -1.072999999999999952e-03 5.328000000000000271e-03 -5.610999999999999668e-03 1.395099999999999986e-02 -1.387670000000000015e-01 -6.569500000000000339e-02 -3.367000000000000201e-03 -1.582000000000000073e-03 3.330000000000000169e-04 -7.976000000000000451e-03
4.321234943654091165e-02 2.274639827777212228e-02 -5.458218808663524088e-03 -4.936753168512208713e-05 -7.739639874543165730e-03 -2.155997323559746912e-03 1.451617420943383981e-03 -3.859422915959823553e-03 1.781286567677918195e-02 -4.330592475789181439e-02 -1.117130113660420344e-02 -4.706562735066786157e-03 -1.308674567907366221e-03 2.396564933506916835e-05 -5.492086809489123492e-03
1.237563223385707428e-01 4.235528591146694999e-02 -5.564105192182046931e-03 -1.885185743069210922e-03 -8.677751131691771244e-03 -1.228706234439621995e-03 3.935993205259483499e-03 -2.815161609607404105e-03 1.177645653836262643e-02 -1.222284387308413683e-01 -3.206125989309864532e-02 -8.431361029767600124e-04 -3.578691069919644457e-03 1.198875242392098217e-03 -4.139509074667752433e-03
2.223620000000000041e-01 1.266299999999999926e-01 -5.499000000000000415e-03 5.048999999999999669e-03 -4.321000000000000188e-03 -6.830000000000000134e-04 3.526000000000000054e-03 2.570000000000000127e-04 8.559999999999999901e-03 -2.307230000000000114e-01 -1.202389999999999987e-01 6.956999999999999643e-03 -2.130000000000000003e-04 -2.328000000000000208e-03 -9.334999999999999548e-03
3.406100000000000239e-01 1.966519999999999935e-01 5.311999999999999882e-03 -5.582000000000000156e-03 -3.223000000000000170e-03 1.127200000000000077e-02 5.865999999999999687e-03 3.386000000000000121e-03 -6.660000000000000338e-04 -3.399179999999999979e-01 -1.962520000000000098e-01 2.677000000000000126e-03 -9.759999999999999796e-04 -5.640000000000000482e-04 -1.859600000000000142e-02
2.931672420043405364e-02 1.681451536652948942e-02 -3.346180829606836167e-03 1.625648719595979529e-03 -4.975746128613924707e-03 1.604981527638094140e-03 1.046867657925622990e-03 -3.355055500388884424e-03 1.508147607815957768e-02 -3.053431332249986058e-02 -6.440263365838827005e-03 -7.126407348870960300e-03 -1.454937254955832818e-03 -2.042450487584364718e-03 -6.213857947355087320e-03
3.059963005674478861e-02 -2.901642147481381991e-04 -1.732445415832937737e-03 3.250297489188209554e-03 -8.170324532623486624e-03 4.867521059367661482e-03 1.876926156038238652e-03 -3.238468395909882558e-03 1.348970965786411465e-02 -3.559710018948467752e-02 1.296019508529236940e-02 -1.103193702170899952e-02 -1.297535124865594857e-04 -1.261226461472090415e-03 -5.593848213786282303e-03
9.361027960302685524e-02 4.415113284267156019e-02 -5.191554217240393560e-04 1.090085497087684352e-03 4.943666866981999202e-04 2.256904697193483399e-04 4.807609625527935887e-03 -4.908691656214512165e-03 1.491262837036922730e-02 -9.686680678073841810e-02 -3.730605998696710779e-02 -8.874878554205795078e-03 -2.641177944404087246e-03 -2.429736521545875980e-03 -5.745273318290397037e-03
-5.256199999999999761e-02 -3.132000000000000062e-02 -6.629999999999999609e-04 2.766999999999999928e-03 -3.493000000000000011e-03 4.461999999999999821e-03 2.622999999999999898e-03 -2.400000000000000061e-04 6.419000000000000226e-03 4.629099999999999882e-02 3.560499999999999776e-02 3.449999999999999942e-03 8.819999999999999715e-04 -5.519999999999999733e-04 -1.366799999999999959e-02
8.953600000000000447e-02 5.169399999999999690e-02 2.722000000000000027e-03 -3.193000000000000092e-03 -1.843999999999999936e-03 5.311999999999999882e-03 3.497999999999999807e-03 2.020000000000000094e-03 6.226999999999999896e-03 -8.802100000000000202e-02 -5.081900000000000306e-02 -7.589000000000000259e-03 -1.820999999999999919e-03 -1.051000000000000068e-03 -6.671999999999999979e-03
1.342023400507420250e-01 2.259495336275380711e-02 -4.823915675049684354e-03 -1.886515676574197992e-03 -4.172461634342256379e-03 -7.481395158122698154e-03 3.263456831237555433e-03 -4.301337246412441362e-03 1.493660270621381854e-02 -1.312722365522544787e-01 -1.515385016836965672e-02 1.693137219349384517e-03 -4.306034703647092232e-03 1.031694320569317719e-03 -4.323440523459518361e-03
-1.308499999999999941e-01 -6.757699999999999818e-02 2.171000000000000187e-03 -7.674000000000000266e-03 2.199999999999999943e-05 9.086999999999999592e-03 -4.960000000000000216e-04 1.301999999999999989e-03 6.108999999999999847e-03 1.424779999999999935e-01 6.797599999999999476e-02 -5.479000000000000363e-03 -3.458000000000000136e-03 -1.722999999999999922e-03 -1.188700000000000000e-02
0.000000000000000000e+00 0.000000000000000000e+00 -5.394000000000000357e-03 0.000000000000000000e+00 0.000000000000000000e+00 6.024999999999999974e-03 0.000000000000000000e+00 0.000000000000000000e+00 3.436999999999999951e-03 0.000000000000000000e+00 0.000000000000000000e+00 4.676999999999999734e-03 0.000000000000000000e+00 0.000000000000000000e+00 -8.744999999999999302e-03
1.200989999999999974e-01 8.542299999999999893e-02 -8.390000000000000105e-04 1.544000000000000017e-03 -3.712000000000000022e-03 -2.809999999999999998e-03 4.421999999999999716e-03 -2.671000000000000197e-03 1.084399999999999947e-02 -1.256790000000000129e-01 -8.116199999999999803e-02 6.710000000000000469e-04 -3.860000000000000041e-04 2.122000000000000188e-03 -7.865000000000000463e-03
3.084586774516814844e-02 -3.714406953804857969e-03 -1.032932413225189430e-02 7.272936362272602786e-04 -7.848670253660738547e-03 -6.791554550764094048e-03 3.381530927680318085e-04 -2.605270797934881172e-03 1.666818858050505420e-02 -2.960565975401752495e-02 1.568806541018689243e-02 2.762289487914838110e-03 -2.305654720145917155e-03 -1.519717404786414964e-03 -2.309599385403905691e-03
1.980850000000000111e-01 1.118510000000000060e-01 -6.146000000000000421e-03 3.286999999999999991e-03 -6.283999999999999655e-03 -1.165000000000000020e-03 3.824000000000000142e-03 4.879999999999999898e-04 1.109100000000000016e-02 -2.038139999999999952e-01 -1.045119999999999938e-01 6.899999999999999883e-03 -1.381999999999999982e-03 -1.543000000000000101e-03 -1.068000000000000026e-02
1.761770000000000003e-01 1.017929999999999946e-01 6.109999999999999980e-04 3.159999999999999832e-04 -2.041999999999999978e-03 -3.214999999999999976e-03 1.185000000000000072e-03 3.465000000000000198e-03 7.040000000000000251e-03 -1.756010000000000071e-01 -9.962799999999999434e-02 8.635999999999999580e-03 -2.076999999999999853e-03 -3.588000000000000043e-03 -1.307200000000000029e-02
6.301510932329879022e-02 3.202704224287997864e-02 -1.673422584251917826e-03 2.297475129115244749e-03 -4.181561301036448679e-03 3.924252045520427307e-03 4.756882161837713840e-03 -5.631572155643430055e-03 1.450230227081796171e-02 -6.880950961052707815e-02 -2.076785450475935463e-02 -1.111615875327133171e-02 -1.260946954228393336e-03 -1.447064164385271313e-03 -5.636984573579573859e-03
6.073020356573068101e-02 1.982535458821852239e-02 -3.465622644823930596e-03 -2.031098447616365476e-04 -3.804657230269773652e-03 -7.475172155282903269e-03 1.951232440816877802e-03 -2.785046688528582462e-03 1.491600918156796296e-02 -6.110074503912016342e-02 -1.684697707685474041e-02 1.223668270555615259e-03 -1.378591072169544187e-03 3.612316292697026303e-03 -5.198871286851603109e-03
2.710495460816609789e-02 3.582311134418876553e-03 2.561700533917639355e-03 2.915861125816432420e-03 6.177937130844942835e-04 -1.893117752023312046e-03 6.266533562389633690e-04 -2.957916575963857007e-03 1.369246570566283114e-02 -2.748339001113850669e-02 -5.933911073523217726e-04 -4.337957755599673899e-03 -3.163079328989277725e-03 -6.487867123689479475e-04 -1.002311049327374477e-02
1.273920000000000052e-01 7.355000000000000426e-02 1.809999999999999977e-03 3.797000000000000028e-03 2.190999999999999805e-03 4.099999999999999912e-04 4.287000000000000012e-03 2.475000000000000203e-03 4.278999999999999818e-03 -1.356040000000000023e-01 -7.829099999999999948e-02 5.326000000000000005e-03 1.269999999999999970e-04 7.399999999999999623e-05 -1.182599999999999971e-02
4.672959357873014002e-02 7.244763757136298520e-03 -6.067226060564061794e-03 -5.860706971976919311e-05 -1.285666518064538296e-03 -1.342064461252538525e-02 1.409359533784922082e-03 -3.405552715758343278e-03 1.535291423166040142e-02 -4.681227944454020157e-02 -6.384422632346348735e-03 6.758148774469463667e-03 -1.268056598755053612e-03 3.829878224929444963e-03 -2.623203813005206726e-03
-2.344699999999999909e-02 -2.164100000000000051e-02 -2.265999999999999785e-03 -1.448999999999999984e-03 -6.688999999999999634e-03 8.829999999999999958e-04 2.922999999999999817e-03 -9.460000000000000093e-04 8.718000000000000055e-03 2.216399999999999967e-02 3.125800000000000106e-02 2.115000000000000126e-03 -1.920000000000000049e-04 -1.981999999999999821e-03 -9.450999999999999332e-03
8.875371242531533700e-02 3.295149550383899562e-02 -6.549130689252314307e-03 -1.096545174111907331e-04 -5.700862133541014301e-03 -3.039649292462790267e-03 2.875946206284438634e-03 -3.954421976283052295e-03 1.513259839723660183e-02 -8.801609930504937507e-02 -2.241375629666450195e-02 -1.651430833374596717e-03 -3.503914808639242706e-03 -8.814437327081694031e-04 -3.893376036278554855e-03
4.023672821388270260e-02 2.193527698848360061e-02 -3.821963901424045595e-04 7.006249696272560425e-04 -5.544313902764891853e-03 -1.334739674821556641e-03 1.962471878859024105e-03 -3.009137387838429611e-03 1.493143751638804570e-02 -4.234990255780684415e-02 -1.686139505661384333e-02 -5.403934038185878065e-03 -5.499225045621406556e-04 3.479580839272338605e-03 -7.811567347334650788e-03
9.705700000000000438e-02 8.007200000000000428e-02 -2.387999999999999932e-03 5.283000000000000369e-03 -1.807000000000000012e-03 -2.350999999999999791e-03 2.688999999999999984e-03 -1.565999999999999901e-03 9.450999999999999332e-03 -1.056769999999999932e-01 -7.628699999999999370e-02 4.662999999999999610e-03 6.470000000000000057e-04 -4.130000000000000099e-04 -9.376000000000000653e-03
4.153762317076090116e-02 1.577319786411103542e-02 -2.266064532062311235e-03 2.916954155938213545e-03 -4.319579518488794907e-03 3.331628466021818464e-03 2.816629172062007185e-03 -4.523603059747532615e-03 1.517806688827440936e-02 -4.723510830362575436e-02 -7.121302169574532728e-03 -9.133358306469675433e-03 -3.609819513536371771e-05 1.912868836998239674e-04 -7.110272515764242893e-03
6.402330891457941320e-02 9.338224453898438804e-03 -4.176067369781101025e-03 -4.729063552733397610e-04 -4.382810967427712597e-03 -1.127406003190232521e-02 8.250687475939046242e-04 -3.709205934373576048e-03 1.794659906216639414e-02 -6.054660274554219540e-02 -1.465373887554985736e-03 1.983307425280972022e-03 -3.827878610854066818e-03 2.201876989411328872e-04 -4.480767425095945507e-03
9.786240700197179621e-02 1.381252115995237027e-02 -5.430782723170766643e-03 -1.363941804614611291e-03 -6.510322304900809272e-03 -8.978333711771669182e-03 2.193990303227189714e-03 -3.796915478686670696e-03 1.815460581772720960e-02 -9.483931815263559051e-02 -4.456178028588117859e-03 1.159917118027926517e-03 -3.854137297952533407e-03 9.508846533821934408e-04 -4.905406615612345998e-03
1.035399999999999932e-01 7.463300000000000489e-02 3.209999999999999963e-04 2.047000000000000208e-03 -2.680000000000000090e-03 -1.458000000000000095e-03 3.655999999999999962e-03 -3.272000000000000169e-03 1.092699999999999921e-02 -1.064110000000000056e-01 -6.953700000000000159e-02 -2.873999999999999819e-03 -2.831000000000000183e-03 8.559999999999999901e-04 -6.916000000000000272e-03
1.361999999999999877e-01 9.045799999999999674e-02 -1.260000000000000052e-03 -2.347999999999999827e-03 -3.285000000000000159e-03 1.214000000000000018e-03 5.976000000000000409e-03 -1.657000000000000053e-03 4.118000000000000133e-03 -1.391729999999999912e-01 -8.368699999999999750e-02 4.994000000000000175e-03 -6.560000000000000076e-04 -1.828999999999999897e-03 -9.065999999999999406e-03
-1.886079999999999979e-01 -1.219630000000000020e-01 1.654000000000000088e-03 -8.413000000000000339e-03 -4.323999999999999719e-03 1.310000000000000053e-02 2.213000000000000123e-03 7.420000000000000380e-04 6.216000000000000171e-03 2.007440000000000058e-01 1.280449999999999922e-01 -9.587999999999999301e-03 -5.936999999999999569e-03 -2.500000000000000052e-03 -1.138100000000000049e-02
-1.302689999999999959e-01 -7.520999999999999908e-02 3.755999999999999790e-03 -7.239999999999999908e-03 -4.179999999999999688e-03 9.475000000000000783e-03 2.540000000000000157e-03 1.466000000000000072e-03 8.184000000000000302e-03 1.387339999999999962e-01 8.009800000000000253e-02 -1.177800000000000027e-02 -3.765999999999999816e-03 -2.174000000000000151e-03 -9.636999999999999733e-03
1.658163093917904354e-02 -1.556794696650219863e-02 -1.223809072133167459e-03 6.643227846911273562e-03 -1.174650379751169269e-03 -1.311572056492906488e-03 2.778191093917869309e-03 -2.924044350788726401e-03 1.032111059335650942e-02 -2.811031451941016848e-02 1.729977435219909668e-02 -5.974286424608296533e-04 2.107264639401979032e-03 2.366867344843000005e-03 -7.188300822269605601e-03
1.298462778484073266e-01 3.346503182186928715e-02 -3.463031630737018265e-03 -1.175411230907645339e-03 -3.995576018721687210e-03 -6.066271154248904264e-03 3.602409884008587245e-03 -4.083206577446930365e-03 1.391603970508461033e-02 -1.282170893057980876e-01 -2.422215801369852900e-02 -1.111156653413706468e-03 -4.056187195710194739e-03 -1.164102692540913697e-03 -3.274580332588537899e-03
2.736218192510476294e-02 6.156006243376213605e-03 -3.195536328847374367e-03 1.648497577181659958e-03 -3.276847302548510383e-03 3.044580676186254848e-03 1.457027150463669580e-03 -3.971447102018683777e-03 1.529241347200235336e-02 -2.988076599904913519e-02 3.334567861288361464e-03 -9.318331475566413516e-03 -5.869406537009541408e-04 -2.242279700097379608e-03 -5.823126343774819892e-03
5.424127800389801080e-02 2.457354493642757362e-02 -2.379039251720050513e-03 -7.555022258330389194e-04 -8.345500183583532544e-03 -7.858626295788451307e-04 2.575471229657694955e-03 -3.913788719129529872e-03 1.560009569865582375e-02 -5.477310141339228333e-02 -1.138755453881136644e-02 -6.748179990474535705e-03 -1.289135544834097173e-03 -9.277113778476672257e-04 -5.687025421646826895e-03
-1.202767863110229193e-02 -1.118102388967736061e-01 4.363869765997023444e-04 5.650977458190460136e-03 -3.698859296900224546e-03 2.520701225603320505e-03 2.711354435667240586e-03 -1.625555827068688591e-03 9.013931793466744766e-03 6.669666525010591592e-06 1.157921757802540946e-01 -3.979905726307462685e-03 3.658687070219619059e-03 1.341478356384949878e-03 -7.991125749327093394e-03
1.654599999999999960e-01 7.775100000000000067e-02 -2.686000000000000019e-03 -2.024000000000000191e-03 -5.264999999999999715e-03 -9.849999999999999815e-04 5.558999999999999705e-03 -4.061000000000000373e-03 1.389499999999999937e-02 -1.685349999999999904e-01 -7.198699999999999544e-02 -1.951999999999999959e-03 -4.600000000000000139e-04 3.562000000000000062e-03 -8.273000000000000839e-03
3.125592724270582351e-02 4.523541734466045121e-03 3.530165346725852929e-03 5.873926311026489953e-03 4.705674631891664477e-05 -8.985189787960040511e-04 3.862136897982530737e-03 -3.229365433268491063e-03 1.172569791013108355e-02 -4.275987205984417561e-02 -3.041158318039928997e-03 -7.471406528249816166e-03 1.767871608629297637e-03 1.700913674088172511e-03 -6.884926335749884906e-03
3.053247341449295826e-02 2.056394731563724113e-02 -4.900237748617584585e-03 1.157302136339738354e-03 -7.669002920994607252e-03 -4.905367566553977231e-03 8.084395790315474168e-04 -2.626252260404786203e-03 1.620491717077794658e-02 -3.098607073519389285e-02 -1.183338642905448768e-02 -1.378944529061915808e-03 -1.512144394670352594e-03 1.564694294816638921e-03 -5.020367326544472424e-03
6.343999999999999639e-02 6.382699999999999485e-02 -2.083999999999999915e-03 2.762000000000000132e-03 -2.557999999999999944e-03 -1.459999999999999981e-04 4.534999999999999969e-03 -3.910000000000000281e-03 8.743000000000000771e-03 -7.134799999999999476e-02 -5.648999999999999855e-02 1.134999999999999941e-03 6.099999999999999737e-04 -8.679999999999999565e-04 -7.648000000000000284e-03
2.456180000000000030e-01 1.047759999999999941e-01 -3.151000000000000155e-03 4.277999999999999685e-03 -5.355999999999999650e-03 -3.319999999999999926e-04 5.215000000000000017e-03 -4.930000000000000354e-03 1.170400000000000086e-02 -2.542360000000000175e-01 -9.226099999999999579e-02 -1.289999999999999914e-04 -8.739999999999999939e-04 -2.229000000000000078e-03 -8.092000000000000234e-03
2.569429999999999770e-01 1.326700000000000101e-01 -5.956999999999999622e-03 4.620000000000000083e-04 -8.935000000000000234e-03 2.269999999999999882e-03 4.919999999999999894e-03 9.929999999999999591e-04 9.041999999999999690e-03 -2.619619999999999727e-01 -1.224279999999999952e-01 2.794000000000000043e-03 -3.640000000000000115e-04 -2.299999999999999961e-03 -8.148999999999999994e-03
5.849192547683741000e-02 2.206240746482620793e-02 -5.223055893639261434e-03 -7.892405389595533909e-04 -8.836342831471603876e-03 -3.882701860349729514e-03 1.903524826137980262e-03 -3.341299414805457609e-03 1.724277644281503249e-02 -5.700941960027820082e-02 -8.299995756080803117e-03 -3.835541198899674112e-03 -2.596790163737638327e-03 -1.584757981929570212e-03 -4.302477424022810651e-03
4.847900000000000126e-02 5.236699999999999688e-02 -8.480000000000000124e-04 1.863000000000000073e-03 -2.066000000000000128e-03 5.281000000000000104e-03 4.904999999999999638e-03 -2.707000000000000205e-03 3.932999999999999864e-03 -5.639999999999999875e-02 -4.633099999999999719e-02 -2.439999999999999949e-04 1.152000000000000029e-03 -1.263000000000000017e-03 -8.123000000000000012e-03
-8.495300000000000074e-02 -4.904700000000000032e-02 3.508999999999999966e-03 -1.998999999999999909e-03 -1.154000000000000078e-03 6.708000000000000421e-03 3.609999999999999928e-04 2.079999999999999872e-04 8.850000000000000228e-03 9.012100000000000666e-02 5.203100000000000086e-02 -1.049899999999999965e-02 -3.530999999999999851e-03 -2.037999999999999881e-03 -8.569000000000000228e-03
1.297300000000000120e-01 8.087700000000000444e-02 -2.523000000000000069e-03 -3.010999999999999788e-03 -5.218999999999999681e-03 1.430000000000000064e-03 5.584000000000000422e-03 -5.078000000000000048e-03 1.380699999999999983e-02 -1.302180000000000004e-01 -6.994200000000000417e-02 -5.505999999999999610e-03 -2.085000000000000048e-03 -6.369999999999999794e-04 -7.207999999999999997e-03