-6.216047166001070247e-03 8.776320803534082282e-01 -2.425764098535169444e-01 8.776320803534082282e-01 -2.679324617571401945e-01 -1.776178386415921406e-01 -2.425764098535169444e-01 -1.776178386415921406e-01 -6.440397031419113627e-02
2.521100243806215224e-01 9.671361329261147777e-01 -5.600339789263741874e-01 9.671361329261147777e-01 -8.646428756173478725e-01 -3.233348328850391140e-01 -5.600339789263741874e-01 -3.233348328850391140e-01 -4.392890821188887712e-02
-3.802805504025588146e-01 1.069290606881062589e+00 -3.924541655831285669e-01 1.069290606881062589e+00 1.199744783658373698e-01 -1.960300865450842200e-01 -3.924541655831285669e-01 -1.960300865450842200e-01 -6.502130887003945703e-02
-3.307955951880351408e-01 1.224400683297437453e+00 -5.626739795798393340e-01 1.224400683297437453e+00 -2.325659891247408850e-01 -2.802767233677818104e-01 -5.626739795798393340e-01 -2.802767233677818104e-01 -4.382099943993164604e-02
-3.324242647926918814e-01 6.640856396627093927e-01 -4.413468773050497479e-02 6.640856396627093927e-01 1.266823887714574048e-01 -6.786457953579609625e-02 -4.413468773050497479e-02 -6.786457953579609625e-02 -4.680731196618972967e-02
-5.045034690562191226e-01 7.197620480407809218e-01 -1.959621320940499178e-01 7.197620480407810328e-01 2.131866943738387199e-01 -7.565340774919851463e-02 -1.959621320940499178e-01 -7.565340774919851463e-02 -7.171945773122459511e-02
-7.897596916144135060e-01 2.859520625478781386e-01 -4.998222063952945105e-02 2.859520625478781386e-01 1.148812664845313275e-01 1.799209657864075940e-02 -4.998222063952945105e-02 1.799209657864075940e-02 -6.404500892110197297e-02
-2.773606770186121673e-01 1.240373691053431315e+00 -5.979827335667731170e-01 1.240373691053431315e+00 -3.841878517499401346e-01 -2.998358156616099945e-01 -5.979827335667731170e-01 -2.998358156616099945e-01 -4.908343420258980128e-02
-9.509105488036182496e-01 3.203986251615741354e-01 2.666359657936666627e-01 3.203986251615741909e-01 -2.428782224424833602e-01 3.593230176918066343e-01 2.666359657936666627e-01 3.593230176918065788e-01 -4.506382654736906801e-02
-2.749189273647893450e-01 8.277606611648983259e-01 -1.538854373299764489e-01 8.277606611648983259e-01 7.994283347603152456e-02 -1.380931140293527870e-01 -1.538854373299764489e-01 -1.380931140293527870e-01 -7.168655766814154007e-02
-6.066405303865969323e-01 3.857663312281051637e-01 9.978549998453796477e-02 3.857663312281051637e-01 1.576471873105317889e-01 1.721496243603178877e-01 9.978549998453796477e-02 1.721496243603178877e-01 -5.145491767932416222e-02
-9.090917137492676714e-01 2.911877179807213500e-01 -3.845241362553526027e-02 2.911877179807213500e-01 6.817010906256903979e-02 7.622513775831504801e-02 -3.845241362553526027e-02 7.622513775831504801e-02 -7.278216597635470131e-02
-6.361884879509003277e-01 4.260614124228326860e-01 -7.932131799741706790e-02 4.260614124228326860e-01 1.947513290676996800e-01 -2.747301221504558008e-02 -7.932131799741706790e-02 -2.747301221504558008e-02 -7.048194017793775468e-02
-1.349653282503367469e-01 3.493206848521072105e-01 -1.158661784089004970e-01 3.493206848521071550e-01 5.939865847075389560e-01 3.663670431551403761e-02 -1.158661784089004831e-01 3.663670431551403067e-02 -8.162601903642886791e-02
6.493096664235434301e-02 1.075413802313053946e+00 -5.700193045919044188e-01 1.075413802313053946e+00 -6.819457961747924513e-01 -3.206822846999510812e-01 -5.700193045919044188e-01 -3.206822846999510812e-01 -4.059126480018866029e-02
-9.921714366427823728e-02 4.258309993723911058e-01 -1.584849862389459685e-01 4.258309993723910503e-01 6.137904141338202946e-01 4.595438852406041191e-02 -1.584849862389459685e-01 4.595438852406041885e-02 -4.880541179442292321e-02
-1.463795039131378373e-02 9.472282192531691347e-01 -3.163333102394424445e-01 9.472282192531691347e-01 -3.029149799218777694e-01 -2.048986818961733569e-01 -3.163333102394424445e-01 -2.048986818961733569e-01 -4.639073391630835208e-02
-6.540271342643133590e-02 2.513995599627278921e-01 -6.598770819308491520e-02 2.513995599627279476e-01 6.067338836781902556e-01 3.921604740377813286e-02 -6.598770819308491520e-02 3.921604740377813286e-02 -6.553366286910788929e-02
-3.546387276432769742e-01 7.431692097981865697e-01 -2.698018986453581958e-01 7.431692097981865697e-01 3.686524596864983461e-01 -3.927499052791672690e-02 -2.698018986453581958e-01 -3.927499052791672690e-02 -8.975628455862001698e-02
-5.863221188837764997e-01 5.317954231002034460e-01 -1.070656552320008309e-01 5.317954231002033350e-01 2.173627855255175212e-01 -4.115280304490436664e-02 -1.070656552320008309e-01 -4.115280304490436664e-02 -6.865336608765280901e-02
-3.441913399486785652e-01 1.126309100081995362e+00 -4.398210974597011047e-01 1.126309100081995362e+00 -3.886974346152223536e-02 -2.293814255988404771e-01 -4.398210974597011047e-01 -2.293814255988404771e-01 -7.063005550549054934e-02
-3.854807889822170486e-01 5.815702412468375382e-01 -1.802743857364335067e-01 5.815702412468376492e-01 3.555566210534178984e-01 -5.458621890569695378e-02 -1.802743857364335067e-01 -5.458621890569695378e-02 -7.682313366518124520e-02
1.630777589969372443e-01 7.975687905737965933e-01 -2.102991395066837743e-01 7.975687905737965933e-01 -3.850962930394405404e-01 -1.417720503011968003e-01 -2.102991395066837743e-01 -1.417720503011968003e-01 -4.389879413599383218e-02
-4.761295203082519523e-01 9.616070628021219369e-01 -3.369797204009485903e-01 9.616070628021220479e-01 2.190753281249435136e-01 -9.221244482835119771e-02 -3.369797204009485903e-01 -9.221244482835121159e-02 -6.804135412241314740e-02
-3.369564332148952679e-01 8.634684266574412792e-01 -3.467786409693273675e-01 8.634684266574412792e-01 4.656313700080745299e-01 -1.300300702084559723e-01 -3.467786409693273675e-01 -1.300300702084559723e-01 -7.331522727279825291e-02
-6.562014492159830015e-01 6.718169637317172871e-01 -1.039503701474602665e-01 6.718169637317171761e-01 5.606067771364378616e-02 -3.558421902263992492e-02 -1.039503701474602665e-01 -3.558421902263991798e-02 -6.100193347087269624e-02
-4.639002420170977858e-01 6.048487007077276711e-01 -1.697572915740153399e-01 6.048487007077277822e-01 2.822944176856636012e-01 -6.240579494926122572e-02 -1.697572915740153399e-01 -6.240579494926122572e-02 -7.340848923935569537e-02
-2.693712809085235249e-01 7.121460103506217498e-01 -2.797616838501430503e-01 7.121460103506217498e-01 4.523698706166477401e-01 -2.284061414637033813e-02 -2.797616838501430503e-01 -2.284061414637033813e-02 -4.149588313107033938e-02
1.831889426821744493e-01 4.790597383509375140e-01 2.459316198094892289e-04 4.790597383509375140e-01 -3.699815364464553169e-01 1.430418605014376304e-04 2.459316198094892289e-04 1.430418605014376304e-04 -7.825142621326014458e-02
-1.087691704086509947e+00 3.563767637818818779e-01 8.439448729035088637e-02 3.563767637818818779e-01 -1.229512331412787318e-01 2.778802658236709799e-01 8.439448729035088637e-02 2.778802658236709799e-01 -5.012515349914076213e-02
-3.723078488093470861e-01 8.945662290317187848e-01 -3.193095847404021637e-01 8.945662290317187848e-01 3.728047310616152688e-01 -1.453681728643294035e-01 -3.193095847404021637e-01 -1.453681728643294035e-01 -7.622374510299415040e-02
-4.523262660011539982e-01 3.979537447994590527e-01 -1.011749803576283135e-01 3.979537447994591082e-01 3.272849626611137874e-01 -4.924060120015109204e-02 -1.011749803576283135e-01 -4.924060120015108510e-02 -7.575255926151376606e-02
-4.629612254413546513e-01 8.862650021799621802e-01 -2.903756532510201605e-01 8.862650021799622913e-01 2.177134474944924514e-01 -9.218527714529993478e-02 -2.903756532510202160e-01 -9.218527714529992090e-02 -4.867138765073159706e-02
-5.808754289520660918e-02 1.067250378239173791e+00 -4.493321264298843487e-01 1.067250378239173791e+00 -3.954354590967374405e-01 -2.710191545363817567e-01 -4.493321264298843487e-01 -2.710191545363817567e-01 -5.282008911989928557e-02
6.294368858391419241e-01 2.781737570677781934e-01 -6.952637462393735923e-01 2.781737570677781934e-01 3.082276048110276223e-01 -4.014105936555782406e-01 -6.952637462393735923e-01 -4.014105936555782406e-01 -5.435590699054629327e-02
-5.923553211596335188e-01 3.039991825287159388e-01 -6.612746935889780853e-02 3.039991825287159388e-01 2.456462811136892743e-01 -3.930830444480762353e-02 -6.612746935889780853e-02 -3.930830444480761660e-02 -6.499990331127619703e-02
-7.178527597123111059e-01 4.399645753345004517e-01 -6.240942093771269239e-02 4.399645753345004517e-01 1.247936549980854515e-01 -8.377668290009699856e-03 -6.240942093771268545e-02 -8.377668290009698121e-03 -5.398204269613740558e-02
-5.443346563590705234e-01 8.361427269892642844e-01 -2.167423561510406493e-01 8.361427269892642844e-01 1.447177390957418985e-01 -8.162802047431895469e-02 -2.167423561510406493e-01 -8.162802047431894081e-02 -7.163810556815916608e-02
-3.532606958057346591e-01 4.605169961185670013e-01 9.991348480709189017e-02 4.605169961185670013e-01 7.215583535083923417e-02 5.150510780581589454e-02 9.991348480709189017e-02 5.150510780581589454e-02 -5.963339879115197445e-02
2.818351267953501105e-01 7.013442800638470809e-01 -1.984191365660906703e-01 7.013442800638470809e-01 -5.280051497056750254e-01 -1.145589637173794334e-01 -1.984191365660906703e-01 -1.145589637173794334e-01 -4.088989605281447004e-02
-3.439655133191433234e-01 8.165173175353021007e-01 -3.213248300356252307e-01 8.165173175353021007e-01 3.762035369936561069e-01 -3.849016402747134497e-02 -3.213248300356252307e-01 -3.849016402747134497e-02 -7.369463419353776412e-02
1.648946415759379447e-01 2.852505649031124579e-01 2.124347293889070065e-01 2.852505649031124579e-01 6.819583437064152820e-02 1.134999520484038793e-01 2.124347293889070065e-01 1.134999520484038793e-01 -4.910351025318649559e-02
-8.557567137219866948e-01 2.509506324586625303e-06 2.509506324586625303e-06 2.509506324586625303e-06 -8.557592232283113276e-01 0.000000000000000000e+00 2.509506324586625303e-06 0.000000000000000000e+00 -2.162441599896294808e-02
-3.487812270163475059e-01 9.218571103115983378e-01 -2.567576300937559619e-01 9.218571103115983378e-01 1.720116015124656395e-01 -1.645282536525483064e-01 -2.567576300937559619e-01 -1.645282536525483064e-01 -6.932511221670550894e-02
-1.487958414555087816e-01 2.686587764612988760e-01 -7.668375476849412231e-02 2.686587764612988760e-01 5.583921455952211010e-01 -1.389009567630758880e-03 -7.668375476849410843e-02 -1.389009567630759964e-03 -6.096450863521347963e-02
-2.153608137633750141e-01 1.081808024428100534e+00 -4.100909760323233066e-01 1.081808024428100534e+00 -1.852442283620109043e-01 -2.440118474711804875e-01 -4.100909760323233066e-01 -2.440118474711804875e-01 -6.568381853973032092e-02
1.313450515225393633e-01 9.217692775902377456e-01 -3.598481499077745283e-01 9.217692775902377456e-01 -5.071110000471669155e-01 -2.292408932446636238e-01 -3.598481499077745283e-01 -2.292408932446636238e-01 -7.732290887316309314e-02
-6.085471643957395260e-01 7.700128436491654460e-01 -1.434376510003801952e-01 7.700128436491655570e-01 5.678133557479809329e-02 -5.867736434424154768e-02 -1.434376510003802230e-01 -5.867736434424154074e-02 -5.947245586720727867e-02
-3.361713701910099550e-01 4.747402279872243169e-01 -1.436070948502313482e-01 4.747402279872243724e-01 4.239113741830481397e-01 -2.870095962915064289e-02 -1.436070948502313482e-01 -2.870095962915064289e-02 -7.934267411704276629e-02
-2.325559456632707300e-01 2.579297473482899949e-01 -6.630438449281923774e-02 2.579297473482899949e-01 5.037069348469711549e-01 1.304615150062503294e-03 -6.630438449281923774e-02 1.304615150062505245e-03 -9.406855313646689254e-02
3.123657807402709374e-01 7.541166885635791628e-01 -2.561804436391010298e-01 7.541166885635791628e-01 -5.584128378406911786e-01 -1.479077932648110716e-01 -2.561804436391010298e-01 -1.479077932648110716e-01 -5.913149752623464428e-02
-2.055232413698482863e-01 3.604482598149129080e-01 -1.133321814282430839e-01 3.604482598149129080e-01 5.359747662040204030e-01 5.836245383667447960e-03 -1.133321814282430839e-01 5.836245383667448827e-03 -7.900361556556639853e-02
-5.092691754863113429e-01 4.872658240323358148e-01 3.223962775196437258e-02 4.872658240323358148e-01 1.683602698101920869e-01 2.529331424550859339e-02 3.223962775196437258e-02 2.529331424550859339e-02 -5.690807492265089612e-02
-4.343421976047339705e-01 6.922475952850920544e-01 -2.101814769030949381e-01 6.922475952850920544e-01 2.975911721115052644e-01 -6.979626435992282441e-02 -2.101814769030949381e-01 -6.979626435992282441e-02 -6.051934071352717964e-02
-5.490000163690340607e-01 4.120222707702824172e-01 -9.128052522969536120e-02 4.120222707702824727e-01 2.687817762954546885e-01 -3.462706861900526067e-02 -9.128052522969536120e-02 -3.462706861900526067e-02 -8.136921946709302356e-02
-1.466580591151669388e-01 8.662715452220046686e-01 -1.886295523938782692e-01 8.662715452220046686e-01 -7.878595106039709695e-02 -1.581390505501507893e-01 -1.886295523938782692e-01 -1.581390505501507893e-01 -6.546800099581587262e-02
-6.632853381067237430e-01 5.505965024859377221e-01 -8.858805003143302437e-02 5.505965024859377221e-01 1.397574856048026393e-01 -2.450120804856477028e-02 -8.858805003143302437e-02 -2.450120804856477028e-02 -6.642306213341418741e-02
-2.593650494955223040e-01 4.570204160589816378e-01 -1.572675079953724242e-01 4.570204160589816378e-01 4.794051157783297823e-01 -1.477190888023336042e-02 -1.572675079953724242e-01 -1.477190888023336215e-02 -9.360055919297066707e-02
-2.934076045723728599e-01 6.379463481555673887e-01 -2.374203162376061771e-01 6.379463481555674997e-01 4.317735549961796981e-01 -2.584109122471535055e-02 -2.374203162376062048e-01 -2.584109122471535402e-02 -8.836309435120962008e-02
-3.784486107856105397e-01 8.375251502738648712e-01 -2.293688780672175354e-01 8.375251502738648712e-01 2.987065378155459583e-01 -1.439302257403413110e-01 -2.293688780672175354e-01 -1.439302257403413110e-01 -6.662739291777489137e-02
1.447257392452352409e-01 8.662589976903816158e-01 -2.951003772271149628e-01 8.662589976903816158e-01 -4.504061951368074634e-01 -1.852467378683354815e-01 -2.951003772271149628e-01 -1.852467378683354815e-01 -4.208191155699311792e-02
-1.167522722450681366e-01 1.818839993933893950e-01 2.998659297375049770e-01 1.818839993933893950e-01 -3.134373399408694680e-03 2.030040046211104565e-01 2.998659297375049770e-01 2.030040046211104565e-01 -3.815202465269045690e-02
6.512419862934751280e-02 2.412338239698630926e-01 2.054256782243365498e-01 2.412338239698630926e-01 -2.134284938934432885e-01 1.186017784062884800e-01 2.054256782243365498e-01 1.186017784062884800e-01 -4.998434697311639890e-02
-7.705763640533636050e-01 5.850636754910034654e-01 -2.234454764758554354e-02 5.850636754910035764e-01 1.382759155755717249e-02 4.526833068206861238e-02 -2.234454764758554354e-02 4.526833068206861932e-02 -6.108351427473168727e-02
-4.079661890371139021e-01 8.517374519516387466e-01 -3.066551179229698998e-01 8.517374519516386355e-01 3.009913717411639711e-01 -6.877893722544742294e-02 -3.066551179229698998e-01 -6.877893722544743682e-02 -6.687540346142790970e-02
-6.955557706392043738e-01 3.122682532848476966e-01 -5.960136500794713244e-02 3.122682532848476966e-01 1.832266301626467586e-01 -1.272651313040894239e-02 -5.960136500794713244e-02 -1.272651313040894239e-02 -6.142530111764611667e-02
-4.968645489431136597e-01 5.117786613546025931e-01 -1.284605142003771572e-01 5.117786613546025931e-01 2.738094259713025336e-01 -5.673403613879750979e-02 -1.284605142003771572e-01 -5.673403613879750979e-02 -7.213108789096080165e-02
-1.056391110845365411e+00 3.502912662213325534e-01 3.660602545813412129e-02 3.502912662213325534e-01 -5.617995934478677011e-02 2.147693181394673134e-01 3.660602545813412129e-02 2.147693181394672579e-01 -5.470069034157153121e-02
-3.842330228637827472e-01 9.662051060796932322e-01 -3.708699016853589381e-01 9.662051060796932322e-01 3.633012306104057010e-01 -1.474259680504904635e-01 -3.708699016853589381e-01 -1.474259680504904635e-01 -7.467287019439960982e-02
-6.930428368918999382e-01 6.913741398031320040e-01 -5.776116247029129680e-02 6.913741398031321150e-01 9.439444034263868612e-04 7.105632161310728410e-03 -5.776116247029130374e-02 7.105632161310727543e-03 -7.328983547754065742e-02
-4.024558892314514247e-01 2.888787318517958003e-01 -7.123578673107772152e-02 2.888787318517958003e-01 3.751718970155533683e-01 -4.404303674037805122e-02 -7.123578673107773540e-02 -4.404303674037805122e-02 -7.514980268846199740e-02
-1.665860488387093385e-01 7.961308434498084452e-01 -1.322836068879347515e-01 7.961308434498084452e-01 -4.650366170091475154e-02 -1.203810183904204106e-01 -1.322836068879347515e-01 -1.203810183904204106e-01 -5.366830225760955975e-02
-4.678221690294386836e-01 1.206455203570318435e+00 -5.192118395443234835e-01 1.206455203570318435e+00 9.117538378488125594e-02 -2.168087989126614712e-01 -5.192118395443234835e-01 -2.168087989126614712e-01 -6.396731621371307130e-02
-1.314278652312507178e-01 1.143230701228682866e+00 -5.354031743505565100e-01 1.143230701228682866e+00 -4.310202587793757756e-01 -2.955796929351110491e-01 -5.354031743505565100e-01 -2.955796929351110491e-01 -4.427271057835723694e-02
-4.135404518264050311e-01 4.924651898979327536e-01 -1.415107652202451660e-01 4.924651898979328091e-01 3.423198693680900018e-01 -5.692950925533909329e-02 -1.415107652202451660e-01 -5.692950925533907941e-02 -7.384852842092319569e-02
-1.007817739953988621e-02 7.386305250345550633e-01 -1.029248923965958434e-01 7.386305250345550633e-01 -1.795777630810942993e-01 -1.011331048808409988e-01 -1.029248923965958434e-01 -1.011331048808409988e-01 -3.114297348812001751e-02
1.352598813888944984e-01 3.248882172999582041e-01 1.413805673145612785e-01 3.248882172999582041e-01 -2.398912380862092408e-01 8.162671221982915892e-02 1.413805673145612785e-01 8.162671221982915892e-02 -5.421788414269403111e-02
-3.769780400794028319e-01 9.157690479681511730e-01 -2.981996175379794667e-01 9.157690479681511730e-01 2.693478233242070363e-01 -1.611303820890580274e-01 -2.981996175379794667e-01 -1.611303820890580274e-01 -6.607781103269042000e-02
-3.536120266911767507e-01 8.438465967054985528e-01 -2.090845384455838341e-01 8.438465967054985528e-01 1.779265079195163080e-01 -1.501236873494210811e-01 -2.090845384455838341e-01 -1.501236873494210811e-01 -5.787925387026592039e-02
-4.684991947991333505e-02 3.389343805040886948e-01 -1.252216268326448445e-01 3.389343805040886948e-01 6.327054770899587233e-01 3.853212035944672542e-02 -1.252216268326448168e-01 3.853212035944671848e-02 -5.550877432367653380e-02
-8.084525463396698974e-01 4.575052898835307302e-01 -2.512748744513014151e-02 4.575052898835307302e-01 8.438417785805779614e-02 4.513033045219757428e-02 -2.512748744513014151e-02 4.513033045219756734e-02 -6.013169088155861930e-02
-3.590501268965559656e-01 9.971949996820134166e-01 -3.280853283574815538e-01 9.971949996820134166e-01 1.407607192523883943e-01 -1.820170032285925166e-01 -3.280853283574815538e-01 -1.820170032285925166e-01 -6.816321078842189907e-02
-5.049377675700748164e-02 1.011822912048028877e+00 -3.888153814124779006e-01 1.011822912048028877e+00 -3.456970437434305210e-01 -2.399489567316747396e-01 -3.888153814124779006e-01 -2.399489567316747396e-01 -7.171416223771198695e-02
-4.216271766064480508e-01 1.138214198085834239e+00 -4.563512156197531699e-01 1.138214198085834239e+00 1.028621547384811624e-01 -2.084245382822175474e-01 -4.563512156197531699e-01 -2.084245382822175474e-01 -7.146321160525333227e-02
-3.017104168860761382e-01 7.488517442945964442e-01 -1.029625349914646409e-01 7.488517442945964442e-01 1.022548542079312062e-01 -1.045560715075771474e-01 -1.029625349914646409e-01 -1.045560715075771474e-01 -5.185894819758260499e-02
-9.022524867568676443e-01 3.309033275582353162e-01 -2.842177000621569360e-02 3.309033275582353717e-01 5.546804396297329992e-02 8.863830065404423864e-02 -2.842177000621569360e-02 8.863830065404422476e-02 -6.961740322166592998e-02
-4.138753115697999529e-01 1.059634026544053143e+00 -4.119078586113240070e-01 1.059634026544053143e+00 2.416403639944461057e-01 -1.764534277069839396e-01 -4.119078586113240070e-01 -1.764534277069839396e-01 -7.497401095335001764e-02
-2.169388331313122364e-01 6.117474610003483804e-01 -2.346406804859358652e-01 6.117474610003483804e-01 5.221532620609392605e-01 1.208166546319975991e-02 -2.346406804859358652e-01 1.208166546319976165e-02 -5.338792047819913844e-02
-4.025875521218093001e-01 6.767711941334947356e-01 -6.809796362398265468e-02 6.767711941334947356e-01 2.521501764818149249e-01 -8.493173204930974662e-02 -6.809796362398265468e-02 -8.493173204930974662e-02 -5.716655407408331724e-02
1.004705952111501210e-01 1.024229911316785202e+00 -4.923400458206499408e-01 1.024229911316785202e+00 -6.135065396906659307e-01 -2.923499582953680842e-01 -4.923400458206499408e-01 -2.923499582953680842e-01 -5.601970968374723331e-02
-4.594896411612855447e-01 3.707299733726532320e-01 2.897872048347944762e-01 3.707299733726532320e-01 -1.868444893786441463e-01 2.944780598214870593e-01 2.897872048347944762e-01 2.944780598214871148e-01 -4.979871090970532793e-02
-4.898294497932793590e-01 2.963833685317448507e-01 -7.027792315462050299e-02 2.963833685317449063e-01 3.039227678256696819e-01 -5.286727639713569710e-02 -7.027792315462050299e-02 -5.286727639713569710e-02 -6.669469281132710259e-02
-7.272755291901903396e-01 5.694198296401403736e-01 -5.928836536070434399e-02 5.694198296401403736e-01 7.385268009708488568e-02 3.359440024010470257e-03 -5.928836536070433705e-02 3.359440024010470257e-03 -6.298776458848351356e-02
-4.218404846440379496e-01 6.709717250173751202e-01 -1.158212453986465079e-01 6.709717250173751202e-01 3.229860115059215997e-01 -9.092443315242258739e-02 -1.158212453986465079e-01 -9.092443315242258739e-02 -6.967142408949847376e-02
1.443568418155210253e-01 7.278923474716488817e-01 -1.534864258243671675e-01 7.278923474716488817e-01 -3.517600110236318023e-01 -1.106140197751292603e-01 -1.534864258243671675e-01 -1.106140197751292603e-01 -4.222495341749454845e-02
9.693645745423477011e-01 1.406503009741065791e-01 -7.171366033644707150e-01 1.406503009741065791e-01 4.370355454394099226e-01 -2.659725373176380359e-01 -7.171366033644707150e-01 -2.659725373176380359e-01 -1.595544121172176241e-02
-1.165894067528282951e+00 3.107595372606327122e-01 4.549599760995054476e-02 3.107595372606326567e-01 -1.107242588586328652e-01 2.743208958586373925e-01 4.549599760995054476e-02 2.743208958586373925e-01 -4.557430973043911926e-02
-4.022362212363672085e-01 1.034762309361075383e+00 -4.338660389514570337e-01 1.034762309361075383e+00 3.539784146145663613e-01 -1.574087842096960621e-01 -4.338660389514570337e-01 -1.574087842096960621e-01 -6.255446415297080676e-02
-3.645581816957355059e-01 6.647992313039847723e-01 -2.222940336100987513e-01 6.647992313039847723e-01 3.749627852933635208e-01 -4.616565381047837979e-02 -2.222940336100987513e-01 -4.616565381047837979e-02 -7.179824708406737366e-02
-8.201292901465957741e-02 2.625742013995993607e-01 -7.599872527285350676e-02 2.625742013995993607e-01 6.225189244474925720e-01 3.706072981369196856e-02 -7.599872527285352064e-02 3.706072981369196162e-02 -7.025804642765176578e-02
-5.273789008460042504e-01 9.189527728583334332e-01 -2.623681824844754096e-01 9.189527728583334332e-01 1.431519001327096474e-01 -9.854606681713999616e-02 -2.623681824844753541e-01 -9.854606681713998229e-02 -6.456951859318338371e-02
-5.697237426769260482e-01 7.464909150258378645e-01 -1.678499032401603308e-01 7.464909150258376425e-01 1.422769551365328511e-01 -6.942081655677814767e-02 -1.678499032401603586e-01 -6.942081655677816154e-02 -7.257924919102569372e-02
-4.770797378608386818e-01 1.275845562951463119e+00 -5.751412070003857346e-01 1.275845562951463119e+00 -3.754723362846508483e-02 -2.422577025502944403e-01 -5.751412070003857346e-01 -2.422577025502944403e-01 -3.142654770279830478e-02
-3.936029213143264482e-01 2.678940204707845885e-01 -6.228447488715559144e-02 2.678940204707845330e-01 3.655173953192681346e-01 -3.665507761523015967e-02 -6.228447488715558450e-02 -3.665507761523015967e-02 -8.951843528158831553e-02
-3.610258514461919255e-01 3.845240278910358467e-01 -1.092945448666031161e-01 3.845240278910359022e-01 3.971260201613728280e-01 -4.513437539031355666e-02 -1.092945448666031161e-01 -4.513437539031355666e-02 -6.679951445295265189e-02
-2.463507073656952262e-01 1.146480511919022671e+00 -4.774762398601233859e-01 1.146480511919022671e+00 -2.177348067464339176e-01 -2.634253883981825806e-01 -4.774762398601233859e-01 -2.634253883981825806e-01 -5.096305443970518267e-02
-3.255381794380262095e-01 7.904919827384622177e-01 -2.866985500523989705e-01 7.904919827384622177e-01 4.828440738884142158e-01 -1.321882456476004830e-01 -2.866985500523989705e-01 -1.321882456476004830e-01 -4.951255978409411368e-02
-1.856256733233480616e-01 1.012575763945404717e+00 -3.418449515351900669e-01 1.012575763945404717e+00 -1.583021684612488933e-01 -2.150897870803196166e-01 -3.418449515351900669e-01 -2.150897870803196166e-01 -7.529773726922167620e-02
1.355409460972482050e-01 9.694222931878132554e-01 -4.196421571037000087e-01 9.694222931878132554e-01 -5.529170189898464649e-01 -2.528302526957778573e-01 -4.196421571037000087e-01 -2.528302526957778573e-01 -6.149043347134607040e-02
-8.597835081051948825e-01 4.807737837453820440e-01 9.510610063101268552e-02 4.807737837453820440e-01 -1.492850827215682075e-01 1.877686988840377436e-01 9.510610063101268552e-02 1.877686988840377713e-01 -4.819486714960564966e-02
-1.010250554130911471e+00 2.971685274197408688e-01 -2.108574966902176939e-02 2.971685274197408133e-01 4.089248773928005204e-03 1.383000059054577402e-01 -2.108574966902176592e-02 1.383000059054576847e-01 -7.062298735455764531e-02
-4.480347116600730817e-01 1.131021952959568866e+00 -4.822794349653821699e-01 1.131021952959568866e+00 2.323928331883444165e-01 -1.822303112661823599e-01 -4.822794349653821699e-01 -1.822303112661823599e-01 -6.057195415654736959e-02
8.825682792938701615e-01 2.528453097337253763e-01 -6.642989477002992915e-01 2.528453097337253763e-01 3.986375891669100002e-01 -3.232545286826523090e-01 -6.642989477002992915e-01 -3.232545286826523090e-01 -5.171841584340575171e-02
2.957653964031304317e-01 8.759657681538827179e-01 -4.080532568967590312e-01 8.759657681538827179e-01 -7.157112037721053976e-01 -2.355899442458677662e-01 -4.080532568967590312e-01 -2.355899442458677662e-01 -4.301042889709016243e-02
-2.879407556830693715e-01 9.642025200326731493e-02 3.849256466093686768e-01 9.642025200326731493e-02 -1.335057364680084478e-03 2.876345959114697814e-01 3.849256466093686768e-01 2.876345959114697814e-01 -3.665133987058766252e-02
-4.210442396788385278e-01 7.744077332621160936e-01 -2.565871701213884859e-01 7.744077332621159826e-01 3.027764557607600104e-01 -6.751588919798359734e-02 -2.565871701213884304e-01 -6.751588919798359734e-02 -6.979505016244269555e-02
2.823018949717231996e-01 9.238069967258021320e-01 -4.821414121175299217e-01 9.238069967258021320e-01 -7.844214869392872602e-01 -2.783644795484467860e-01 -4.821414121175299217e-01 -2.783644795484467860e-01 -3.737407769206860936e-02
-1.061611521510508416e+00 3.539322127920730421e-01 1.480387802348150927e-01 3.539322127920730421e-01 -2.071480202965368667e-01 3.290697059142554948e-01 1.480387802348151205e-01 3.290697059142554948e-01 -3.857120041790375320e-02
5.810761894580330350e-02 3.429265487610868579e-01 1.837811861747769004e-01 3.429265487610868579e-01 -6.721963641037732862e-02 9.285173400970513080e-02 1.837811861747769004e-01 9.285173400970513080e-02 -3.784335537476630346e-02
-3.654290188762438548e-03 2.476868693910906083e-01 -6.558205832324735807e-02 2.476868693910906361e-01 6.549064587376444146e-01 7.470470164096393306e-02 -6.558205832324734419e-02 7.470470164096391918e-02 -7.993267999793592093e-02
-7.688930335729171964e-03 2.576959602355833323e-01 -7.416327267379661803e-02 2.576959602355832768e-01 6.836299925718735127e-01 7.280310276046192408e-02 -7.416327267379663191e-02 7.280310276046192408e-02 -5.028572066612798513e-02
1.155175951333715229e-01 5.761751236061153358e-01 -1.149855797925591547e-02 5.761751236061153358e-01 -2.289949616248541375e-01 -2.878152803668400372e-02 -1.149855797925591547e-02 -2.878152803668400372e-02 -5.616777055689783915e-02
-1.714412914347229477e-01 4.404319470728160213e-01 -1.634856881080035129e-01 4.404319470728160213e-01 5.374665515845878927e-01 -2.040346947635240851e-03 -1.634856881080035129e-01 -2.040346947635242585e-03 -6.929184062662613330e-02
-3.224926439258904431e-01 2.816837264256385476e-01 -7.525538404647087731e-02 2.816837264256384921e-01 4.331229199092293536e-01 -2.853503508938335168e-02 -7.525538404647087731e-02 -2.853503508938334821e-02 -1.002894703031897428e-01
-7.607542461939720280e-01 4.780238461605631484e-01 1.529590486006460193e-01 4.780238461605632039e-01 -1.929456400652161119e-01 2.360241464239096199e-01 1.529590486006460470e-01 2.360241464239096199e-01 -5.148094413361375271e-02
-4.745173020191251201e-01 2.715460480900203089e-01 -6.217411712353775044e-02 2.715460480900203089e-01 3.159068014575932559e-01 -4.867332124033771357e-02 -6.217411712353775738e-02 -4.867332124033771357e-02 -4.618547682196014192e-02
1.328030746971241849e-01 3.977416954090325363e-01 6.141765778793306652e-02 3.977416954090325363e-01 -3.264717157907723877e-01 3.545932436640901464e-02 6.141765778793306652e-02 3.545932436640901464e-02 -5.049126725068289051e-02
-4.053906706863725784e-01 5.834401444157936156e-01 4.788138067311280624e-03 5.834401444157936156e-01 1.698132739721277262e-01 -1.880624039645216808e-02 4.788138067311280624e-03 -1.880624039645216808e-02 -3.695248062953804952e-02
-3.106158862325112402e-01 5.591143194646814862e-01 -1.924444915590419192e-01 5.591143194646814862e-01 4.233146447114599642e-01 -3.089745633061502517e-02 -1.924444915590419192e-01 -3.089745633061502517e-02 -9.166631187590215668e-02
-2.903724673115937738e-01 9.823211556961884972e-01 -2.971682104385743872e-01 9.823211556961884972e-01 1.503445239059847047e-02 -1.875655217122535190e-01 -2.971682104385743872e-01 -1.875655217122535190e-01 -8.099431662603331916e-02