8.412933792000000466e+00 0.000000000000000000e+00 0.000000000000000000e+00 -4.193260963000000174e+00 7.262941549999999857e+00 0.000000000000000000e+00 0.000000000000000000e+00 0.000000000000000000e+00 2.000000000000000000e+01
7.835519743999999953e+00 0.000000000000000000e+00 0.000000000000000000e+00 -4.328877428000000194e+00 7.497836174999999770e+00 0.000000000000000000e+00 0.000000000000000000e+00 0.000000000000000000e+00 2.000000000000000000e+01
8.518718612000000689e+00 0.000000000000000000e+00 0.000000000000000000e+00 -4.208032999000000274e+00 7.288527470000000008e+00 0.000000000000000000e+00 0.000000000000000000e+00 0.000000000000000000e+00 2.000000000000000000e+01
8.734394937999999442e+00 0.000000000000000000e+00 0.000000000000000000e+00 -4.056477963999999936e+00 7.026026429999999934e+00 0.000000000000000000e+00 0.000000000000000000e+00 0.000000000000000000e+00 2.000000000000000000e+01
8.031529664000000679e+00 0.000000000000000000e+00 0.000000000000000000e+00 -4.236879821999999685e+00 7.338491636999999734e+00 0.000000000000000000e+00 0.000000000000000000e+00 0.000000000000000000e+00 2.000000000000000000e+01
7.359625817000000403e+00 0.000000000000000000e+00 0.000000000000000000e+00 2.442095350000000220e+00 6.533514637999999763e+00 0.000000000000000000e+00 0.000000000000000000e+00 0.000000000000000000e+00 2.000000000000000000e+01
7.968166999000000139e+00 0.000000000000000000e+00 0.000000000000000000e+00 3.402624319000000064e+00 9.021570819000000796e+00 0.000000000000000000e+00 0.000000000000000000e+00 0.000000000000000000e+00 2.000000000000000000e+01
9.018257055999999494e+00 0.000000000000000000e+00 0.000000000000000000e+00 -3.974159181000000096e+00 6.883446104999999982e+00 0.000000000000000000e+00 0.000000000000000000e+00 0.000000000000000000e+00 2.000000000000000000e+01
8.030977728999999954e+00 0.000000000000000000e+00 0.000000000000000000e+00 2.722642723999999959e+00 7.376618319000000312e+00 0.000000000000000000e+00 0.000000000000000000e+00 0.000000000000000000e+00 2.000000000000000000e+01
8.727494957999999414e+00 0.000000000000000000e+00 0.000000000000000000e+00 -3.856260867000000037e+00 6.679240220999999700e+00 0.000000000000000000e+00 0.000000000000000000e+00 0.000000000000000000e+00 2.000000000000000000e+01
7.998731090999999793e+00 0.000000000000000000e+00 0.000000000000000000e+00 -4.165140541000000418e+00 7.214235548000000442e+00 0.000000000000000000e+00 0.000000000000000000e+00 0.000000000000000000e+00 2.000000000000000000e+01
8.931939562000000166e+00 0.000000000000000000e+00 0.000000000000000000e+00 -4.299948127999999592e+00 7.447729153000000046e+00 0.000000000000000000e+00 0.000000000000000000e+00 0.000000000000000000e+00 2.000000000000000000e+01
8.694610831000000317e+00 0.000000000000000000e+00 0.000000000000000000e+00 -4.149337462000000087e+00 7.186863810000000186e+00 0.000000000000000000e+00 0.000000000000000000e+00 0.000000000000000000e+00 2.000000000000000000e+01
8.574676080999999783e+00 0.000000000000000000e+00 0.000000000000000000e+00 -4.348894452999999771e+00 7.532506682000000175e+00 0.000000000000000000e+00 0.000000000000000000e+00 0.000000000000000000e+00 2.000000000000000000e+01
7.920061654999999590e+00 0.000000000000000000e+00 0.000000000000000000e+00 -4.239737446000000354e+00 7.343441185999999732e+00 0.000000000000000000e+00 0.000000000000000000e+00 0.000000000000000000e+00 2.000000000000000000e+01
8.299008254000000306e+00 0.000000000000000000e+00 0.000000000000000000e+00 -4.034342906000000006e+00 6.987687382999999919e+00 0.000000000000000000e+00 0.000000000000000000e+00 0.000000000000000000e+00 2.000000000000000000e+01
7.330185401999999684e+00 0.000000000000000000e+00 0.000000000000000000e+00 4.023998108999999879e+00 1.093236278600000055e+01 0.000000000000000000e+00 0.000000000000000000e+00 0.000000000000000000e+00 2.000000000000000000e+01
8.362467768000000135e+00 0.000000000000000000e+00 0.000000000000000000e+00 -4.236793426000000196e+00 7.338341995000000395e+00 0.000000000000000000e+00 0.000000000000000000e+00 0.000000000000000000e+00 2.000000000000000000e+01
8.610861312999999129e+00 0.000000000000000000e+00 0.000000000000000000e+00 -4.247259252000000096e+00 7.356469337000000053e+00 0.000000000000000000e+00 0.000000000000000000e+00 0.000000000000000000e+00 2.000000000000000000e+01
8.056399095999999815e+00 0.000000000000000000e+00 0.000000000000000000e+00 2.815184631999999798e+00 7.627347626999999797e+00 0.000000000000000000e+00 0.000000000000000000e+00 0.000000000000000000e+00 2.000000000000000000e+01
8.064799304999999308e+00 0.000000000000000000e+00 0.000000000000000000e+00 -4.218760150999999681e+00 7.307107442999999591e+00 0.000000000000000000e+00 0.000000000000000000e+00 0.000000000000000000e+00 2.000000000000000000e+01
7.981169236000000389e+00 0.000000000000000000e+00 0.000000000000000000e+00 -4.370508432000000276e+00 7.569943194999999569e+00 0.000000000000000000e+00 0.000000000000000000e+00 0.000000000000000000e+00 2.000000000000000000e+01
8.287844102999999407e+00 0.000000000000000000e+00 0.000000000000000000e+00 2.780083965999999851e+00 7.377905307999999884e+00 0.000000000000000000e+00 0.000000000000000000e+00 0.000000000000000000e+00 2.000000000000000000e+01
7.687386151000000112e+00 0.000000000000000000e+00 0.000000000000000000e+00 -3.908574460000000084e+00 6.769850028999999658e+00 0.000000000000000000e+00 0.000000000000000000e+00 0.000000000000000000e+00 2.000000000000000000e+01
8.230000500999999247e+00 0.000000000000000000e+00 0.000000000000000000e+00 -4.148903641000000420e+00 7.186112409999999784e+00 0.000000000000000000e+00 0.000000000000000000e+00 0.000000000000000000e+00 2.000000000000000000e+01
1.077309505200000039e+01 0.000000000000000000e+00 0.000000000000000000e+00 3.074593310000000024e+00 8.353028149000000013e+00 0.000000000000000000e+00 0.000000000000000000e+00 0.000000000000000000e+00 2.000000000000000000e+01
7.993364718999999674e+00 0.000000000000000000e+00 0.000000000000000000e+00 -4.140197960000000066e+00 7.171033727000000191e+00 0.000000000000000000e+00 0.000000000000000000e+00 0.000000000000000000e+00 2.000000000000000000e+01
7.910002352000000236e+00 0.000000000000000000e+00 0.000000000000000000e+00 2.735727974000000007e+00 7.412070965999999927e+00 0.000000000000000000e+00 0.000000000000000000e+00 0.000000000000000000e+00 2.000000000000000000e+01
8.192957806000000787e+00 0.000000000000000000e+00 0.000000000000000000e+00 -4.446223254999999597e+00 7.701085123999999560e+00 0.000000000000000000e+00 0.000000000000000000e+00 0.000000000000000000e+00 2.000000000000000000e+01
8.163367948999999513e+00 0.000000000000000000e+00 0.000000000000000000e+00 -3.976686389999999793e+00 6.887823359999999617e+00 0.000000000000000000e+00 0.000000000000000000e+00 0.000000000000000000e+00 2.000000000000000000e+01
7.989708002000000420e+00 0.000000000000000000e+00 0.000000000000000000e+00 -4.560707124000000334e+00 7.899377014999999780e+00 0.000000000000000000e+00 0.000000000000000000e+00 0.000000000000000000e+00 2.000000000000000000e+01
8.055535925999999236e+00 0.000000000000000000e+00 0.000000000000000000e+00 -4.319976537999999699e+00 7.482419380999999703e+00 0.000000000000000000e+00 0.000000000000000000e+00 0.000000000000000000e+00 2.000000000000000000e+01
9.397739248000000600e+00 0.000000000000000000e+00 0.000000000000000000e+00 -4.014971909999999866e+00 6.954135831000000323e+00 0.000000000000000000e+00 0.000000000000000000e+00 0.000000000000000000e+00 2.000000000000000000e+01
8.309937242000000168e+00 0.000000000000000000e+00 0.000000000000000000e+00 -4.271343859999999992e+00 7.398185104999999595e+00 0.000000000000000000e+00 0.000000000000000000e+00 0.000000000000000000e+00 2.000000000000000000e+01
8.760043883999999892e+00 0.000000000000000000e+00 0.000000000000000000e+00 -4.146864567999999807e+00 7.182580631000000437e+00 0.000000000000000000e+00 0.000000000000000000e+00 0.000000000000000000e+00 2.000000000000000000e+01
6.988778960000000318e+00 0.000000000000000000e+00 0.000000000000000000e+00 2.699462807999999825e+00 7.089629312999999655e+00 0.000000000000000000e+00 0.000000000000000000e+00 0.000000000000000000e+00 2.000000000000000000e+01
8.194973573000000400e+00 0.000000000000000000e+00 0.000000000000000000e+00 -4.080802148000000074e+00 7.068157154999999747e+00 0.000000000000000000e+00 0.000000000000000000e+00 0.000000000000000000e+00 2.000000000000000000e+01
8.531199556000000683e+00 0.000000000000000000e+00 0.000000000000000000e+00 -4.091328724000000250e+00 7.086389720999999753e+00 0.000000000000000000e+00 0.000000000000000000e+00 0.000000000000000000e+00 2.000000000000000000e+01
9.473971004999999224e+00 0.000000000000000000e+00 0.000000000000000000e+00 -3.729553141999999877e+00 6.459775987000000441e+00 0.000000000000000000e+00 0.000000000000000000e+00 0.000000000000000000e+00 2.000000000000000000e+01
8.198451551999999865e+00 0.000000000000000000e+00 0.000000000000000000e+00 -4.399514706999999802e+00 7.620183539000000117e+00 0.000000000000000000e+00 0.000000000000000000e+00 0.000000000000000000e+00 2.000000000000000000e+01
7.079785614999999588e+00 0.000000000000000000e+00 0.000000000000000000e+00 2.561543450999999916e+00 6.958679150000000035e+00 0.000000000000000000e+00 0.000000000000000000e+00 0.000000000000000000e+00 2.000000000000000000e+01
8.019385038999999438e+00 0.000000000000000000e+00 0.000000000000000000e+00 -4.196843485999999679e+00 7.269146662999999897e+00 0.000000000000000000e+00 0.000000000000000000e+00 0.000000000000000000e+00 2.000000000000000000e+01
8.267506018000000623e+00 0.000000000000000000e+00 0.000000000000000000e+00 -4.063945685000000196e+00 7.038960902000000353e+00 0.000000000000000000e+00 0.000000000000000000e+00 0.000000000000000000e+00 2.000000000000000000e+01
8.175624374999999944e+00 0.000000000000000000e+00 0.000000000000000000e+00 -4.142727960000000209e+00 7.175415816000000113e+00 0.000000000000000000e+00 0.000000000000000000e+00 0.000000000000000000e+00 2.000000000000000000e+01
8.416044721000000450e+00 0.000000000000000000e+00 0.000000000000000000e+00 -4.249508332000000443e+00 7.360364858999999704e+00 0.000000000000000000e+00 0.000000000000000000e+00 0.000000000000000000e+00 2.000000000000000000e+01
8.239865695000000656e+00 0.000000000000000000e+00 0.000000000000000000e+00 -3.937298445999999785e+00 6.819601435000000045e+00 0.000000000000000000e+00 0.000000000000000000e+00 0.000000000000000000e+00 2.000000000000000000e+01
8.520082010999999511e+00 0.000000000000000000e+00 0.000000000000000000e+00 2.851876083000000062e+00 7.568430286999999979e+00 0.000000000000000000e+00 0.000000000000000000e+00 0.000000000000000000e+00 2.000000000000000000e+01
8.128951791000000426e+00 0.000000000000000000e+00 0.000000000000000000e+00 -4.420736676999999837e+00 7.656941072999999598e+00 0.000000000000000000e+00 0.000000000000000000e+00 0.000000000000000000e+00 2.000000000000000000e+01
8.288420239000000578e+00 0.000000000000000000e+00 0.000000000000000000e+00 -4.093606309000000110e+00 7.090334613999999647e+00 0.000000000000000000e+00 0.000000000000000000e+00 0.000000000000000000e+00 2.000000000000000000e+01
8.343466908999999987e+00 0.000000000000000000e+00 0.000000000000000000e+00 -4.102234496000000341e+00 7.105279074000000250e+00 0.000000000000000000e+00 0.000000000000000000e+00 0.000000000000000000e+00 2.000000000000000000e+01
8.757755211999999290e+00 0.000000000000000000e+00 0.000000000000000000e+00 -4.036020034999999950e+00 6.990592254000000061e+00 0.000000000000000000e+00 0.000000000000000000e+00 0.000000000000000000e+00 2.000000000000000000e+01
7.948504221000000314e+00 0.000000000000000000e+00 0.000000000000000000e+00 -4.279808889999999977e+00 7.412846968000000203e+00 0.000000000000000000e+00 0.000000000000000000e+00 0.000000000000000000e+00 2.000000000000000000e+01
8.416495600999999382e+00 0.000000000000000000e+00 0.000000000000000000e+00 -4.108697303999999662e+00 7.116472986999999861e+00 0.000000000000000000e+00 0.000000000000000000e+00 0.000000000000000000e+00 2.000000000000000000e+01
7.477696712000000190e+00 0.000000000000000000e+00 0.000000000000000000e+00 -4.485016432000000108e+00 7.768276883000000410e+00 0.000000000000000000e+00 0.000000000000000000e+00 0.000000000000000000e+00 2.000000000000000000e+01
8.467773316000000605e+00 0.000000000000000000e+00 0.000000000000000000e+00 3.704013547000000184e+00 1.006303153100000003e+01 0.000000000000000000e+00 0.000000000000000000e+00 0.000000000000000000e+00 2.000000000000000000e+01
8.914037497000000698e+00 0.000000000000000000e+00 0.000000000000000000e+00 -3.966152716999999939e+00 6.869578502000000420e+00 0.000000000000000000e+00 0.000000000000000000e+00 0.000000000000000000e+00 2.000000000000000000e+01
7.748494874000000365e+00 0.000000000000000000e+00 0.000000000000000000e+00 -4.428590044999999975e+00 7.670543505000000373e+00 0.000000000000000000e+00 0.000000000000000000e+00 0.000000000000000000e+00 2.000000000000000000e+01
7.261203559000000141e+00 0.000000000000000000e+00 0.000000000000000000e+00 2.716841416999999925e+00 7.380561010000000088e+00 0.000000000000000000e+00 0.000000000000000000e+00 0.000000000000000000e+00 2.000000000000000000e+01
8.530740106999999739e+00 0.000000000000000000e+00 0.000000000000000000e+00 -3.889625065999999798e+00 6.737028714000000029e+00 0.000000000000000000e+00 0.000000000000000000e+00 0.000000000000000000e+00 2.000000000000000000e+01
8.521416862000000592e+00 0.000000000000000000e+00 0.000000000000000000e+00 2.906160322999999934e+00 7.705267672999999817e+00 0.000000000000000000e+00 0.000000000000000000e+00 0.000000000000000000e+00 2.000000000000000000e+01
8.883535651000000755e+00 0.000000000000000000e+00 0.000000000000000000e+00 -4.007743835000000310e+00 6.941616437000000417e+00 0.000000000000000000e+00 0.000000000000000000e+00 0.000000000000000000e+00 2.000000000000000000e+01
8.023195558999999477e+00 0.000000000000000000e+00 0.000000000000000000e+00 -4.177927580999999613e+00 7.236383351999999824e+00 0.000000000000000000e+00 0.000000000000000000e+00 0.000000000000000000e+00 2.000000000000000000e+01
7.892145046000000441e+00 0.000000000000000000e+00 0.000000000000000000e+00 -4.396498922000000142e+00 7.614960047000000287e+00 0.000000000000000000e+00 0.000000000000000000e+00 0.000000000000000000e+00 2.000000000000000000e+01
8.115946801999999849e+00 0.000000000000000000e+00 0.000000000000000000e+00 -3.956491870999999882e+00 6.852845424999999935e+00 0.000000000000000000e+00 0.000000000000000000e+00 0.000000000000000000e+00 2.000000000000000000e+01
8.138500366000000597e+00 0.000000000000000000e+00 0.000000000000000000e+00 2.923373638000000163e+00 7.920470555999999718e+00 0.000000000000000000e+00 0.000000000000000000e+00 0.000000000000000000e+00 2.000000000000000000e+01
8.284059111999999558e+00 0.000000000000000000e+00 0.000000000000000000e+00 -4.187138431000000161e+00 7.252337014000000082e+00 0.000000000000000000e+00 0.000000000000000000e+00 0.000000000000000000e+00 2.000000000000000000e+01
8.363748980000000444e+00 0.000000000000000000e+00 0.000000000000000000e+00 -4.091032938999999757e+00 7.085877405999999823e+00 0.000000000000000000e+00 0.000000000000000000e+00 0.000000000000000000e+00 2.000000000000000000e+01
8.067469971999999601e+00 0.000000000000000000e+00 0.000000000000000000e+00 -4.288930568999999693e+00 7.428646180000000321e+00 0.000000000000000000e+00 0.000000000000000000e+00 0.000000000000000000e+00 2.000000000000000000e+01
9.123636592000000434e+00 0.000000000000000000e+00 0.000000000000000000e+00 -4.032119985999999656e+00 6.983837172000000315e+00 0.000000000000000000e+00 0.000000000000000000e+00 0.000000000000000000e+00 2.000000000000000000e+01
8.026269842999999682e+00 0.000000000000000000e+00 0.000000000000000000e+00 -4.143002485000000235e+00 7.175891306999999664e+00 0.000000000000000000e+00 0.000000000000000000e+00 0.000000000000000000e+00 2.000000000000000000e+01
8.684687925000000419e+00 0.000000000000000000e+00 0.000000000000000000e+00 -4.245719685000000077e+00 7.353802727999999789e+00 0.000000000000000000e+00 0.000000000000000000e+00 0.000000000000000000e+00 2.000000000000000000e+01
8.067208439999999925e+00 0.000000000000000000e+00 0.000000000000000000e+00 2.738859338000000143e+00 7.327468836000000429e+00 0.000000000000000000e+00 0.000000000000000000e+00 0.000000000000000000e+00 2.000000000000000000e+01
8.038788698999999482e+00 0.000000000000000000e+00 0.000000000000000000e+00 -4.038808978999999688e+00 6.995422848999999665e+00 0.000000000000000000e+00 0.000000000000000000e+00 0.000000000000000000e+00 2.000000000000000000e+01
8.244077728000000604e+00 0.000000000000000000e+00 0.000000000000000000e+00 -4.245211212000000067e+00 7.352922028000000054e+00 0.000000000000000000e+00 0.000000000000000000e+00 0.000000000000000000e+00 2.000000000000000000e+01
7.484955583999999718e+00 0.000000000000000000e+00 0.000000000000000000e+00 -4.276708602000000248e+00 7.407477111000000392e+00 0.000000000000000000e+00 0.000000000000000000e+00 0.000000000000000000e+00 2.000000000000000000e+01
8.585770509999999689e+00 0.000000000000000000e+00 0.000000000000000000e+00 -4.274395028999999901e+00 7.403469885999999889e+00 0.000000000000000000e+00 0.000000000000000000e+00 0.000000000000000000e+00 2.000000000000000000e+01
7.589276897999999605e+00 0.000000000000000000e+00 0.000000000000000000e+00 2.526380553000000084e+00 6.863155755000000191e+00 0.000000000000000000e+00 0.000000000000000000e+00 0.000000000000000000e+00 2.000000000000000000e+01
7.849002714000000047e+00 0.000000000000000000e+00 0.000000000000000000e+00 -4.180490812999999584e+00 7.240822999999999787e+00 0.000000000000000000e+00 0.000000000000000000e+00 0.000000000000000000e+00 2.000000000000000000e+01
8.062651937000000046e+00 0.000000000000000000e+00 0.000000000000000000e+00 -4.388912087999999656e+00 7.601819263000000326e+00 0.000000000000000000e+00 0.000000000000000000e+00 0.000000000000000000e+00 2.000000000000000000e+01
7.646308220999999961e+00 0.000000000000000000e+00 0.000000000000000000e+00 3.992087128000000096e+00 1.084566730999999962e+01 0.000000000000000000e+00 0.000000000000000000e+00 0.000000000000000000e+00 2.000000000000000000e+01
