-6.653464221000000123e+01
-6.629154943000000344e+01
-6.429369422000000611e+01
-6.331095547999999695e+01
-6.530322445999999559e+01
-6.595048638999999469e+01
-6.489923672000000465e+01
-6.554221504999999581e+01
-6.707062935000000437e+01
-6.743276735999999971e+01
-6.563543500000000108e+01
-6.570504393000000221e+01
-6.585209098999999355e+01
-6.563546461999999337e+01
-6.771340775999999551e+01
-6.710836482999999930e+01
-6.374537598999999943e+01
-6.722278337000000192e+01
-6.574601798999999858e+01
-6.524121289999999362e+01
-6.518956303999999591e+01
-6.601901252999999770e+01
-6.709213130000000547e+01
-6.499508561000000384e+01
-6.620607271000000082e+01
-6.572514264000000139e+01
-6.574681073000000708e+01
-6.672833584999999346e+01
-6.532163733000000150e+01
-6.867508164000000193e+01
-6.638339148000000023e+01
-6.724726708999999403e+01
-6.567000690000000418e+01
-6.635413973999999371e+01
-6.781650501999999392e+01
-6.577470520999999337e+01
-6.617333123999999600e+01
-6.735026014999999688e+01
-6.583638713999999936e+01
-6.803689902000000700e+01
-6.429231135000000563e+01
-6.655158740000000250e+01
-6.555007125999999573e+01
-6.636808750999999518e+01
-6.387594050999999951e+01
-6.679400284999999826e+01
-6.703327867999999512e+01
-6.664282389999999623e+01
-6.642968544999999381e+01
-6.686920965000000194e+01
-6.686861604000000625e+01
-6.640638998000000015e+01
-6.724629548999999429e+01
-6.542744650000000206e+01
-6.425372319000000232e+01
-6.536213195999999925e+01
-6.573177909999999713e+01
-6.559744782999999302e+01
-6.548363077000000487e+01
-6.442122412999999881e+01
-6.881555559000000244e+01
-6.585543873000000303e+01
-6.582529922000000511e+01
-6.557084686999999690e+01
-6.553496823999999776e+01
-6.810455862000000593e+01
-6.690613965999999380e+01
-6.601596034000000657e+01
-6.572101170000000536e+01
-6.634304803000000561e+01
-6.645559120999999436e+01
-6.522830652000000384e+01
-6.629455704999999455e+01
-6.684640168999999332e+01
-6.640549640999999781e+01
-6.668146932999999876e+01
-6.611407348000000184e+01
-6.615369841999999778e+01
-6.666614862999999502e+01
-6.341449478999999911e+01
