4.026300000000000018e-02 1.420170000000000043e-01 2.807459999999999956e-01 -1.528599999999999924e-02 2.286070000000000046e-01 2.233529999999999960e-01 3.106079999999999952e-01 3.110789999999999944e-01 2.968000000000000083e-01 3.203540000000000276e-01 -2.273239999999999983e-01 2.990129999999999733e-01 4.476780000000000204e-01 5.238979999999999748e-01 3.587540000000000173e-01 -3.079529999999999768e-01 3.282899999999999707e-02 2.328119999999999912e-01 -1.040289000000000019e+00 2.789159999999999973e-01 -1.573279999999999956e-01 -1.120099999999999915e-02 -9.060000000000000128e-04 -9.579999999999999627e-02 1.283600000000000019e-01 -1.658439999999999914e-01 -5.346739999999999826e-01 5.050000000000000322e-02 2.748000000000000095e-02 -4.873029999999999862e-01 -4.036879999999999913e-01 -4.479650000000000021e-01 1.158089999999999953e-01 -2.615210000000000035e-01 1.689569999999999961e-01 1.918090000000000073e-01 1.968239999999999990e-01 -1.007070000000000048e-01 -2.681120000000000170e-01 1.788970000000000005e-01 4.044899999999999884e-02 -6.133589999999999876e-01 -2.089650000000000118e-01 -1.722239999999999882e-01 4.916559999999999819e-01 -2.533170000000000144e-01 -8.433429999999999538e-01 -8.846180000000000154e-01 4.567370000000000041e-01 4.732700000000000101e-02 1.037939999999999974e-01 3.198856000000000144e+00 4.326274999999999871e+00 -2.521070000000000255e-01 -2.661648000000000014e+00 -4.549817000000000000e+00 6.458620000000000472e-01 -1.652069999999999927e-01 3.802969999999999962e-01 5.289300000000000251e-02
3.007310000000000261e-01 7.947200000000000097e-02 4.154240000000000155e-01 -3.100899999999999837e-02 -1.899199999999999847e-02 8.647000000000000172e-03 6.078200000000000269e-02 -3.106309999999999905e-01 4.556680000000000175e-01 -2.969749999999999890e-01 -7.151269999999999571e-01 -4.502669999999999728e-01 -1.090646000000000004e+00 -7.545520000000000005e-01 9.814190000000000413e-01 2.029040000000000010e-01 9.996969999999999468e-01 -8.220140000000000224e-01 5.021050000000000235e-01 -3.969429999999999903e-01 -2.265909999999999869e-01 -2.484020000000000117e-01 -6.596889999999999699e-01 -4.272850000000000259e-01 -1.490620000000000001e-01 -2.437320000000000042e-01 -3.698179999999999801e-01 -2.830380000000000118e-01 2.380829999999999891e-01 2.273139999999999883e-01 3.423789999999999889e-01 7.181920000000000526e-01 -2.173339999999999994e-01 8.586730000000000196e-01 7.459770000000000012e-01 -6.374260000000000481e-01 -3.793799999999999950e-02 4.720650000000000124e-01 -4.064139999999999975e-01 4.441519999999999913e-01 -3.081820000000000115e-01 1.815130000000000077e-01 -6.627779999999999783e-01 -3.103469999999999840e-01 -5.000799999999999690e-01 3.856899999999999773e-01 -4.011799999999999811e-01 1.184333999999999998e+00 -8.047999999999999599e-02 -4.662979999999999903e-01 -7.109729999999999661e-01 -3.800189999999999957e-01 7.096149999999999958e-01 5.746639999999999526e-01 -3.422549999999999759e-01 -7.681449999999999667e-01 -1.525366999999999917e+00 5.051860000000000239e-01 1.390716999999999981e+00 2.264587000000000128e+00
1.098438000000000025e+00 -1.550099999999999915e-02 3.352289999999999992e-01 -1.585858999999999908e+00 9.184139999999999526e-01 1.300098999999999894e+00 -9.239030000000000298e-01 -1.400480000000000058e-01 -1.108880000000000005e-01 -8.354699999999999627e-02 8.753130000000000077e-01 -2.735637999999999792e+00 -6.336819999999999675e-01 6.977200000000000069e-02 -1.445170000000000066e-01 9.003740000000000077e-01 -1.591390000000000027e-01 9.154839999999999645e-01 -6.661150000000000126e-01 7.379600000000000048e-02 -3.526630000000000043e-01 -5.668000000000000121e-02 1.809089999999999865e-01 4.989000000000000101e-01 -1.163919999999999955e-01 -3.312129999999999797e-01 -3.136909999999999976e-01 1.709229999999999916e-01 -2.062699999999999950e-02 4.298020000000000174e-01 -3.831919999999999771e-01 1.924059999999999937e-01 -1.376630000000000076e-01 1.712226999999999943e+00 -6.852939999999999587e-01 -7.801799999999999846e-01 -3.136869999999999936e-01 8.095299999999999718e-02 1.254429999999999990e-01 1.353969999999999896e-01 7.555070000000000396e-01 -2.122120000000000117e-01 1.485140000000000071e-01 -1.337930999999999981e+00 1.937319999999999931e+00 -5.573299999999999921e-01 -4.998790000000000178e-01 4.149619999999999975e-01 1.621828999999999965e+00 -7.225869999999999793e-01 -6.368409999999999904e-01 -3.473359999999999781e-01 -9.713800000000000212e-02 -3.467589999999999839e-01 3.468289999999999984e-01 2.525149999999999895e-01 -7.577500000000000346e-01 -4.668089999999999740e-01 6.097709999999999519e-01 5.715639999999999610e-01
2.007990000000000053e-01 5.995620000000000394e-01 -1.368449999999999944e-01 7.255270000000000330e-01 1.065863000000000005e+00 -1.856252999999999931e+00 6.928450000000000442e-01 1.523751000000000078e+00 2.508340000000000014e-01 -2.228469999999999895e-01 -4.237480000000000135e-01 -1.073285999999999962e+00 5.857599999999999474e-01 -2.454890000000000128e-01 9.629760000000000542e-01 7.436430000000000540e-01 7.353200000000000014e-02 3.913670000000000204e-01 1.412589999999999957e-01 2.598770000000000246e-01 7.407800000000000495e-02 -5.363799999999999818e-02 -2.782330000000000081e-01 4.093999999999999723e-02 6.205429999999999557e-01 -2.640790000000000082e-01 6.733190000000000008e-01 6.037869999999999626e-01 4.123120000000000118e-01 1.084470000000000045e+00 -2.026470999999999911e+00 -8.603439999999999976e-01 -9.526099999999999568e-01 -4.761520000000000197e-01 -9.103890000000000038e-01 7.710329999999999684e-01 -1.107234999999999969e+00 -1.384940000000000060e-01 2.527510000000000034e-01 5.156070000000000375e-01 -2.656060000000000088e-01 4.340660000000000074e-01 8.724210000000000020e-01 2.032199999999999979e-02 -9.095579999999999776e-01 -7.693360000000000198e-01 3.493099999999999677e-02 -2.061560000000000059e-01 -3.183799999999999963e-01 2.344390000000000085e-01 3.543140000000000178e-01 1.921099999999999891e-02 -9.936409999999999965e-01 -3.443060000000000009e-01 9.979999999999999982e-02 6.132560000000000233e-01 -7.176940000000000541e-01 -8.471429999999999794e-01 -4.578200000000000047e-01 9.065619999999999790e-01
-1.220606999999999998e+00 5.400900000000000145e-02 -3.262320000000000220e-01 2.122320000000000040e-01 -1.100395999999999930e+00 5.572719999999999896e-01 1.107366000000000072e+00 5.348180000000000156e-01 9.862490000000000423e-01 -4.086299999999999655e-02 6.601219999999999866e-01 -4.749499999999999833e-01 6.294030000000000458e-01 -4.327600000000000197e-02 -6.031239999999999934e-01 -3.402299999999999769e-02 -3.362330000000000041e-01 1.510410000000000086e-01 1.508448999999999929e+00 6.769849999999999479e-01 1.281435000000000102e+00 -2.939990000000000103e-01 -2.047762000000000082e+00 1.240620999999999974e+00 7.012690000000000312e-01 -1.904299999999999882e-01 3.243559999999999777e-01 2.802979999999999916e-01 9.688379999999999770e-01 -5.545080000000000009e-01 -3.107329999999999814e-01 -1.156329999999999997e-01 -7.174829999999999819e-01 -1.622257000000000060e+00 -9.147189999999999488e-01 -6.654769999999999852e-01 -5.640799999999999981e-02 5.685949999999999616e-01 -1.080418000000000101e+00 4.187999999999999882e-03 9.652299999999999769e-02 1.065403000000000100e+00 -1.354150000000000076e-01 2.883970000000000145e-01 -2.161409999999999998e-01 2.160440000000000138e-01 1.231138999999999983e+00 -1.490898999999999974e+00 4.561660000000000159e-01 -9.697980000000000489e-01 3.188570000000000015e-01 1.543296000000000001e+00 1.354843999999999937e+00 2.033240000000000047e-01 -1.361952000000000051e+00 7.270500000000000573e-02 1.037406000000000050e+00 -1.582454000000000027e+00 -7.887279999999999847e-01 -1.036732999999999905e+00
-9.429899999999999394e-02 2.857609999999999872e-01 -1.472860000000000003e-01 7.939899999999999736e-02 -4.486979999999999857e-01 3.569379999999999775e-01 -1.140377999999999892e+00 -1.817263000000000073e+00 -1.432862000000000080e+00 -1.311000000000000099e-03 8.958990000000000009e-01 8.330999999999999517e-02 -5.039899999999999936e-02 3.913570000000000104e-01 -1.134352000000000027e+00 8.538339999999999819e-01 1.289780000000000093e-01 1.470664999999999889e+00 -7.662499999999999867e-02 1.412590000000000012e+00 -1.292281999999999931e+00 -8.054919999999999858e-01 -3.798130000000000117e-01 -7.487530000000000019e-01 3.544459999999999833e-01 -3.311569999999999792e-01 1.224693000000000032e+00 -3.616920000000000135e-01 -7.698979999999999713e-01 -1.117680000000000062e-01 3.407490000000000241e-01 -6.727509999999999879e-01 4.740639999999999854e-01 2.784880000000000133e-01 1.131737999999999911e+00 -6.382799999999999585e-02 2.001749999999999918e-01 9.307119999999999838e-01 7.316340000000000066e-01 3.135649999999999826e-01 7.351699999999999902e-01 4.571399999999999908e-01 6.804160000000000208e-01 -8.157729999999999704e-01 -6.203279999999999905e-01 3.388280000000000181e-01 1.132429999999999964e-01 -1.484630000000000116e-01 -1.830950000000000077e-01 8.743919999999999471e-01 3.864949999999999775e-01 8.006940000000000168e-01 2.668340000000000156e-01 5.775099999999999678e-01 -1.040686999999999918e+00 -8.382760000000000211e-01 -1.126195999999999975e+00 -4.866159999999999930e-01 -1.093043999999999905e+00 1.063671000000000033e+00
-9.359499999999999764e-02 -6.277420000000000222e-01 -1.882627000000000050e+00 -5.923789999999999889e-01 1.353050000000000086e-01 4.155019999999999825e-01 2.585450000000000248e-01 5.760000000000000363e-03 -6.068339999999999845e-01 -3.573939999999999895e-01 -9.442200000000000593e-02 -2.049930000000000085e-01 8.614939999999999820e-01 6.888290000000000246e-01 -2.745039999999999925e+00 -3.337930000000000064e-01 6.184950000000000170e-01 3.229779999999999873e-01 4.338549999999999907e-01 3.568700000000000344e-02 2.339300000000000060e-02 5.405860000000000110e-01 1.276707000000000036e+00 2.076797000000000004e+00 -9.843499999999999472e-02 1.000199999999999978e-01 1.683030000000000082e-01 -5.231419999999999959e-01 2.582500000000000073e-02 9.970989999999999576e-01 3.445929999999999827e-01 3.024709999999999899e-01 -5.668290000000000273e-01 1.193805000000000005e+00 -6.636799999999999644e-02 -1.106749999999999956e-01 -1.989193999999999907e+00 -1.587002000000000024e+00 1.604867000000000044e+00 1.100560000000000010e-01 -1.148750000000000049e-01 -5.960400000000000142e-01 1.152981000000000034e+00 6.863559999999999661e-01 -4.833099999999999896e-02 -1.075919999999999932e-01 3.045800000000000174e-01 2.888569999999999749e-01 6.632299999999999862e-01 -1.291231999999999935e+00 2.136636000000000202e+00 2.386199999999999988e-01 -2.862589999999999857e-01 -1.844929999999999903e-01 -1.249317999999999929e+00 4.249569999999999736e-01 -2.632439999999999780e-01 -4.529210000000000180e-01 -5.370920000000000138e-01 -8.253249999999999753e-01
-9.379999999999999449e-02 1.162716000000000083e+00 5.060609999999999831e-01 5.380559999999999787e-01 2.684469999999999912e-01 -4.186360000000000081e-01 -9.002620000000000067e-01 7.087200000000000166e-01 9.273649999999999949e-01 -3.266140000000000154e-01 5.272729999999999917e-01 -2.952359999999999984e-01 -4.965689999999999826e-01 -3.051710000000000256e-01 -6.024840000000000195e-01 1.205324999999999980e+00 -9.760849999999999804e-01 -1.676360000000000072e-01 -5.403499999999999970e-02 -2.986219999999999986e-01 -3.801889999999999992e-01 5.358460000000000445e-01 -2.530029999999999779e-01 4.000420000000000087e-01 1.191549999999999970e-01 -7.826079999999999703e-01 -1.500970000000000082e-01 -6.389899999999999747e-02 -3.456190000000000095e-01 3.523700000000000165e-01 7.918809999999999460e-01 -3.352910000000000057e-01 -5.403520000000000545e-01 2.155259999999999954e-01 -1.452869999999999995e-01 3.696200000000000180e-02 5.838349999999999929e-01 -1.168145999999999907e+00 5.630359999999999809e-01 -3.519930000000000003e-01 9.170760000000000023e-01 3.212400000000000255e-01 -2.856489999999999863e-01 -6.574449999999999461e-01 1.554730000000000001e-01 2.201780000000000126e-01 2.416540000000000077e-01 -4.342369999999999841e-01 -8.575739999999999474e-01 -2.360299999999999898e-01 -4.929470000000000240e-01 -6.936170000000000391e-01 8.505709999999999660e-01 4.074420000000000264e-01 -1.258970000000000089e-01 1.073312999999999962e+00 1.545400000000000107e-01 4.010799999999999782e-02 -2.464639999999999886e-01 -3.427160000000000206e-01
1.253578000000000081e+00 1.169700000000000080e-02 3.802650000000000197e-01 -2.555919999999999859e-01 -9.076640000000000263e-01 -1.580979999999999885e-01 -5.214860000000000051e-01 1.099272000000000027e+00 5.030179999999999652e-01 3.963510000000000089e-01 4.928230000000000111e-01 -3.119609999999999883e-01 1.384031999999999929e+00 -3.387850000000000028e-01 4.917300000000000143e-02 7.858700000000000407e-02 4.990490000000000204e-01 -2.197699999999999931e-01 -4.199959999999999805e-01 9.202040000000000219e-01 3.331640000000000157e-01 -2.112320000000000031e-01 -4.991479999999999806e-01 5.102510000000000101e-01 -2.820389999999999842e-01 -1.558302000000000076e+00 -1.895630000000000093e-01 2.932989999999999764e-01 -5.413360000000000394e-01 1.596160000000000079e-01 -1.591100000000000014e-01 1.502930000000000099e-01 -5.864199999999999968e-02 -1.465690000000000048e-01 1.141451999999999911e+00 6.368000000000000049e-02 1.847560000000000036e-01 3.176209999999999867e-01 -2.341000000000000199e-03 -8.120000000000000048e-04 4.159649999999999737e-01 4.264069999999999805e-01 -2.028830000000000078e-01 -8.844429999999999792e-01 -2.697669999999999790e-01 -1.139430000000000026e-01 1.604500000000000023e-02 -3.660919999999999730e-01 -3.416339999999999932e-01 -3.006880000000000108e-01 6.705000000000000022e-03 -1.998149999999999926e-01 2.182600000000000096e-01 -3.027270000000000238e-01 -7.531799999999999606e-01 -1.925679999999999892e-01 -3.770580000000000043e-01 1.768899999999999986e-02 -5.974800000000000250e-02 -1.762620000000000020e-01
-3.081920000000000215e-01 -2.836980000000000057e-01 -4.658039999999999958e-01 2.416089999999999904e-01 2.798499999999999946e-02 -5.005399999999999849e-01 4.234959999999999836e-01 -4.761399999999999660e-02 2.287240000000000106e-01 4.585399999999999893e-02 3.056130000000000235e-01 -1.331489999999999896e-01 -4.907520000000000215e-01 2.665179999999999771e-01 -2.871540000000000203e-01 1.959849999999999925e-01 -3.697179999999999911e-01 3.551819999999999977e-01 7.642910000000000537e-01 -1.363649999999999862e-01 -1.260509999999999964e-01 2.263599999999999987e-02 -8.503000000000000141e-03 3.244799999999999768e-02 4.007959999999999856e-01 -7.452539999999999720e-01 4.358989999999999809e-01 -5.219810000000000283e-01 6.762979999999999547e-01 5.281000000000000139e-01 -1.155194000000000054e+00 -1.541069999999999940e-01 9.388189999999999591e-01 4.285880000000000245e-01 -1.271000000000000081e-02 4.830899999999999778e-02 3.783580000000000276e-01 4.605200000000000266e-02 2.627699999999999828e-02 2.987670000000000048e-01 -1.134610000000000063e-01 -4.951840000000000130e-01 -7.872000000000000525e-03 -2.295820000000000083e-01 2.597280000000000144e-01 -7.982559999999999656e-01 7.983149999999999968e-01 1.050869999999999999e-01 -4.580179999999999807e-01 2.164800000000000058e-02 -6.818079999999999696e-01 1.101760000000000073e+00 5.102349999999999941e-01 -2.430499999999999883e-01 -7.579199999999999826e-02 2.595870000000000122e-01 -4.432099999999999929e-02 -4.860849999999999893e-01 -8.112390000000000434e-01 1.848999999999999949e-02
5.169519999999999671e-01 1.463550000000000129e-01 -6.658819999999999739e-01 2.248910000000000076e-01 -1.231059999999999932e-01 -8.469630000000000214e-01 -1.346467999999999998e+00 8.407120000000000148e-01 1.009541999999999939e+00 -1.414557999999999982e+00 1.477910000000000057e-01 -1.299339999999999939e-01 -1.546039999999999914e-01 -1.202799999999999980e-01 -1.358280000000000043e-01 -7.273159999999999625e-01 -2.172560000000000047e-01 -5.958120000000000083e-01 9.321899999999999631e-02 8.199809999999999599e-01 -1.472993999999999915e+00 -2.061489999999999989e-01 -1.045886000000000093e+00 3.488260000000000249e-01 2.201086999999999794e+00 -6.299599999999999644e-01 -9.612640000000000073e-01 6.768990000000000284e-01 1.044699999999999969e-02 -2.728799999999999976e-02 -9.218030000000000390e-01 -1.472599999999999951e-02 8.689999999999999947e-01 -8.225300000000000666e-02 -1.769580000000000042e-01 1.145380999999999982e+00 2.721680000000000210e-01 5.236099999999999782e-02 4.829080000000000039e-01 1.594230000000000091e-01 7.892799999999999816e-02 -3.741240000000000121e-01 2.118199999999999944e-02 8.959730000000000194e-01 7.671100000000000141e-02 -1.140820000000000028e-01 -3.904900000000000038e-01 3.071729999999999738e-01 -3.978700000000000292e-02 -1.036649999999999933e-01 -2.276080000000000048e-01 4.372539999999999760e-01 -2.863740000000000174e-01 -2.089900000000000091e-02 5.045039999999999525e-01 4.882739999999999858e-01 5.246420000000000528e-01 -1.005599999999999966e-01 -3.721200000000000063e-01 6.944139999999999757e-01
-7.883919999999999817e-01 4.613740000000000063e-01 7.129499999999999726e-02 2.649380000000000068e-01 5.330399999999999722e-02 -6.358599999999999808e-01 3.717969999999999886e-01 -1.748399999999999954e-02 3.364030000000000076e-01 1.096776999999999891e+00 -5.499400000000000122e-02 1.073493000000000031e+00 1.483419999999999961e+00 -1.119439000000000073e+00 -5.812319999999999709e-01 -1.439060000000000061e-01 -1.840999999999999972e-03 6.728629999999999889e-01 4.187009999999999899e-01 -4.717919999999999892e-01 9.532300000000000495e-02 -5.519789999999999974e-01 -5.261419999999999986e-01 -1.516959999999999975e-01 -9.423399999999999832e-02 4.434730000000000061e-01 1.021419999999999967e-01 -5.278570000000000206e-01 1.666120000000000101e-01 -3.876999999999999804e-03 1.045309000000000044e+00 -1.139132999999999951e+00 -5.265469999999999873e-01 -1.236747999999999958e+00 1.436979999999999924e-01 -3.780970000000000164e-01 4.250360000000000249e-01 -2.977589999999999959e-01 7.350299999999999889e-02 -1.015635999999999983e+00 -9.088770000000000460e-01 6.139360000000000372e-01 -6.057719999999999771e-01 7.695370000000000266e-01 8.633999999999999314e-03 1.088279999999999942e-01 5.008690000000000087e-01 -8.774769999999999515e-01 -7.524319999999999897e-01 -9.678729999999999833e-01 -1.446306000000000092e+00 -7.170549999999999979e-01 1.779004000000000030e+00 8.830789999999999473e-01 -6.798000000000000223e-03 1.395000000000000059e-02 -9.067500000000000560e-02 1.226004000000000094e+00 1.173512000000000111e+00 7.610959999999999948e-01
-7.358479999999999466e-01 7.254969999999999475e-01 7.284540000000000459e-01 1.524860000000000104e-01 4.857469999999999843e-01 1.747009999999999952e-01 -1.044894999999999907e+00 -6.174999999999999933e-02 1.056537000000000059e+00 -5.665160000000000196e-01 -3.288800000000000057e-01 1.070556999999999981e+00 -4.112160000000000259e-01 4.215769999999999795e-01 -2.348719999999999974e-01 -9.909999999999999105e-04 -7.548270000000000257e-01 3.058190000000000075e-01 5.324799999999999534e-01 -1.104611000000000010e+00 5.157799999999999885e-02 -1.130010000000000042e-01 3.714910000000000156e-01 3.036409999999999942e-01 6.285560000000000036e-01 5.150529999999999831e-01 -1.072192000000000034e+00 5.761119999999999575e-01 -3.794100000000000250e-01 -5.413930000000000131e-01 6.848009999999999931e-01 -4.182409999999999739e-01 -6.837619999999999809e-01 3.144199999999999773e-02 -4.130969999999999920e-01 -5.671249999999999902e-01 -1.671600000000000169e-02 -4.760610000000000119e-01 2.392040000000000000e-01 -4.748000000000000137e-02 1.441364000000000090e+00 -5.923899999999999721e-01 -9.569099999999999828e-02 2.832000000000000142e-02 -4.640830000000000233e-01 1.228169999999999956e-01 -1.756900000000000128e-02 -1.451880000000000115e-01 -2.183640000000000025e-01 -1.513220000000000121e-01 -4.546100000000000141e-01 3.261533000000000015e+00 -2.616438000000000041e+00 3.807409999999999961e-01 -1.565459999999999907e-01 2.327009999999999912e-01 4.260499999999999704e-02 -2.582964000000000038e+00 2.500455999999999790e+00 4.017789999999999973e-01
1.596909999999999996e-01 4.977100000000000274e-02 4.763410000000000144e-01 9.213649999999999896e-01 -3.807590000000000141e-01 -2.535879999999999801e-01 -2.411480000000000012e-01 5.148169999999999691e-01 1.030521999999999938e+00 -6.971950000000000092e-01 -2.297510000000000108e-01 -1.709489999999999899e-01 1.492650000000000088e-01 -8.214499999999999580e-02 -3.505800000000000027e-01 -3.555940000000000212e-01 6.020400000000000057e-02 5.965930000000000399e-01 -3.704770000000000008e-01 -2.823609999999999731e-01 3.265400000000000247e-02 -4.808799999999999880e-02 2.302819999999999867e-01 4.816380000000000106e-01 6.690760000000000041e-01 -2.013409999999999922e-01 -5.084929999999999728e-01 2.208799999999999930e-01 2.096880000000000133e-01 -2.334440000000000126e-01 -3.793019999999999725e-01 -5.377769999999999495e-01 -5.714869999999999672e-01 2.011000000000000201e-03 -2.337799999999999948e-02 -1.310099999999999980e-02 -7.458499999999999852e-02 -1.408310000000000117e-01 -3.623689999999999967e-01 -4.729610000000000203e-01 5.967599999999999572e-01 9.447670000000000234e-01 -5.757199999999999818e-02 2.526799999999999879e-02 -3.176459999999999839e-01 2.157799999999999996e-01 2.191289999999999905e-01 -3.264880000000000004e-01 -1.214245000000000019e+00 1.078029999999999961e-01 4.924699999999999911e-02 1.349788999999999906e+00 -1.755579999999999918e-01 -6.469460000000000210e-01 1.156131999999999938e+00 -1.783539999999999903e+00 1.019960000000000033e-01 -9.328229999999999578e-01 1.823719000000000090e+00 4.133099999999999968e-02
6.758000000000000118e-03 -1.366239999999999954e-01 3.416629999999999945e-01 -1.305340000000000111e-01 -8.304660000000000375e-01 -1.040507999999999988e+00 -1.199640000000000012e-01 4.368799999999999906e-01 3.748900000000000149e-02 -6.194269999999999499e-01 4.462369999999999948e-01 3.411959999999999993e-01 5.551099999999999923e-01 5.570119999999999516e-01 -1.515289999999999970e-01 -2.536070000000000269e-01 2.980650000000000244e-01 -1.872499999999999859e-02 5.852600000000000163e-02 -7.925870000000000415e-01 -7.942839999999999900e-01 3.214640000000000275e-01 7.128999999999999920e-03 2.285609999999999864e-01 4.098410000000000108e-01 -3.354719999999999924e-01 -5.632599999999999829e-01 5.022469999999999990e-01 -5.660089999999999844e-01 4.174220000000000153e-01 3.098910000000000275e-01 8.241030000000000300e-01 -1.095730000000000037e-01 -1.318040000000000045e-01 2.093319999999999903e-01 3.748139999999999805e-01 -1.779689999999999883e-01 -7.206090000000000551e-01 -7.452090000000000103e-01 -1.085200000000000053e-02 1.362710000000000032e-01 5.597600000000000353e-01 -6.533860000000000223e-01 3.173100000000000226e-02 4.603249999999999842e-01 -3.365509999999999891e-01 9.252499999999999614e-02 9.740280000000000049e-01 -3.667900000000000327e-02 -2.638989999999999947e-01 -7.624000000000000221e-02 3.759580000000000144e-01 8.997079999999999522e-01 -4.192480000000000095e-01 -3.995119999999999783e-01 -1.362940999999999958e+00 2.005470000000000030e-01 3.304900000000000060e-01 1.069612000000000007e+00 -1.722800000000000026e-02
9.316259999999999541e-01 3.207969999999999988e-01 1.812459999999999960e+00 4.210420000000000273e-01 -8.199809999999999599e-01 -1.454040000000000055e-01 -6.150480000000000391e-01 1.012032000000000043e+00 6.157589999999999453e-01 -5.091269999999999962e-01 -6.904979999999999452e-01 -4.056460000000000066e-01 1.897810000000000052e-01 -2.741613000000000078e+00 1.517773000000000039e+00 -2.920099999999999918e-01 -1.278799999999999937e-01 1.123539000000000065e+00 3.557009999999999894e-01 -1.788963999999999999e+00 2.764119999999999910e-01 4.395069999999999810e-01 4.053999999999999965e-02 3.112960000000000171e-01 -2.361850000000000060e-01 -1.890229999999999966e-01 -1.318704000000000098e+00 5.570800000000000196e-01 -1.046885000000000066e+00 -1.688109999999999888e-01 6.282400000000000484e-02 9.038730000000000375e-01 -5.811549999999999772e-01 -4.720900000000000096e-01 4.241799999999999737e-02 -4.544929999999999803e-01 -1.866700000000000026e-01 2.564999999999999947e+00 -1.320030000000000037e+00 4.339589999999999836e-01 3.920150000000000023e-01 2.487280000000000046e-01 1.143129999999999979e-01 -5.789570000000000549e-01 -8.304219999999999935e-01 1.337470000000000048e-01 2.557200000000000098e-02 5.625369999999999537e-01 -2.888319999999999776e-01 1.229101999999999917e+00 -4.934520000000000017e-01 -5.650349999999999540e-01 1.718466999999999967e+00 2.587300000000000016e-02 5.056720000000000104e-01 1.474228000000000094e+00 -7.694020000000000303e-01 -9.802560000000000162e-01 -1.740242000000000067e+00 -6.858000000000000380e-03
1.603870000000000018e-01 -2.127599999999999977e-02 7.684999999999999609e-01 9.475300000000000389e-02 1.023036000000000056e+00 -4.601310000000000122e-01 -1.673630000000000118e-01 -8.645700000000000607e-02 1.967000000000000137e-01 -1.878822999999999910e+00 6.513799999999999590e-01 -6.640169999999999684e-01 5.311199999999999949e-02 1.320060000000000122e-01 6.608039999999999470e-01 5.897199999999999664e-02 -5.722100000000000103e-02 2.617680000000000007e-01 -4.253870000000000151e-01 7.122000000000000552e-02 -2.458349999999999980e-01 -2.369499999999999940e-01 1.898769999999999902e-01 4.546780000000000266e-01 6.637739999999999752e-01 -1.170795999999999948e+00 2.672789999999999888e-01 -1.044360000000000011e-01 6.069839999999999680e-01 -9.092999999999999694e-02 -3.793009999999999993e-01 -8.543330000000000091e-01 4.348670000000000035e-01 -3.723639999999999728e-01 -7.118039999999999923e-01 8.925070000000000503e-01 3.845599999999999713e-02 6.590999999999999637e-03 4.588400000000000117e-02 6.698269999999999502e-01 6.678830000000000044e-01 1.492739999999999900e-01 1.134710000000000024e-01 2.912859999999999894e-01 -2.943500000000000005e-01 4.096969999999999779e-01 5.412230000000000096e-01 -7.722139999999999560e-01 -5.146230000000000526e-01 -2.012400000000000022e-01 -7.530080000000000107e-01 1.033015999999999934e+00 -8.560689999999999689e-01 2.098480000000000067e-01 3.057590000000000030e-01 -1.728639999999999899e-01 -6.259369999999999656e-01 4.780229999999999757e-01 -4.942599999999999771e-02 -4.356860000000000177e-01
1.387977000000000016e+00 -2.064099999999999963e-02 6.937889999999999890e-01 -1.773810000000000109e-01 -1.270650000000000113e-01 1.066313000000000066e+00 6.827100000000000390e-01 -1.390129999999999977e-01 2.266670000000000074e-01 2.862279999999999824e-01 1.942780000000000062e-01 2.363470000000000015e-01 1.479560000000000042e-01 4.877599999999999991e-02 1.334629999999999983e-01 1.199888999999999983e+00 -2.670960000000000001e-01 -1.681840000000000002e-01 2.434489999999999987e-01 -6.436880000000000379e-01 -4.375060000000000060e-01 1.740430000000000033e-01 -1.128819999999999962e-01 9.474359999999999449e-01 -1.019676999999999945e+00 -1.111739999999999950e-01 -1.576019999999999921e-01 -3.170029999999999792e-01 -6.046719999999999873e-01 -4.067359999999999864e-01 -7.745079999999999742e-01 1.248358000000000079e+00 -2.972049999999999970e-01 -1.925969999999999904e-01 -5.134499999999999620e-01 -2.785830000000000251e-01 -4.199390000000000067e-01 4.491300000000000153e-02 -4.515449999999999742e-01 5.025429999999999620e-01 -2.626299999999999746e-01 4.217620000000000258e-01 -1.722140000000000060e-01 3.069950000000000179e-01 -4.449719999999999787e-01 9.209000000000000519e-02 3.019709999999999894e-01 3.993800000000000128e-02 -1.239740000000000064e+00 -2.688159999999999883e+00 -1.205792999999999893e+00 5.267920000000000380e-01 3.982416000000000178e+00 2.966090000000000115e-01 -2.435460000000000125e-01 5.097709999999999742e-01 3.539099999999999885e-02 -6.870730000000000448e-01 -1.147005999999999970e+00 -2.495860000000000023e-01
-5.763900000000000273e-02 -7.076350000000000140e-01 3.321479999999999988e-01 -3.838170000000000193e-01 -5.234569999999999501e-01 5.908179999999999543e-01 -3.779699999999999727e-02 -3.979499999999999704e-02 -1.977599999999999913e-01 7.135899999999999466e-01 6.477749999999999897e-01 4.924859999999999793e-01 -7.683800000000000352e-02 2.192320000000000102e-01 3.999059999999999837e-01 -1.138799999999999951e-01 1.466729999999999978e-01 6.270559999999999468e-01 1.493859999999999910e-01 -9.378899999999999737e-02 6.811380000000000212e-01 1.240860000000000019e-01 7.314800000000000468e-02 5.137720000000000065e-01 -2.673299999999999982e-02 -3.174589999999999912e-01 -2.504970000000000252e-01 -2.324269999999999947e-01 -4.755999999999999811e-03 2.950329999999999897e-01 9.690200000000000202e-02 1.058230999999999922e+00 -1.397740000000000093e-01 -3.782400000000000206e-01 2.373600000000000015e-02 -8.693650000000000544e-01 -1.271190000000000098e-01 3.663139999999999730e-01 -3.702139999999999875e-01 9.365700000000000414e-02 -7.046780000000000266e-01 -7.516519999999999868e-01 4.002100000000000102e-02 -1.860580000000000012e-01 -4.532450000000000090e-01 4.196110000000000118e-01 -9.499299999999999411e-02 -1.049260000000000054e-01 -9.427800000000000069e-02 -4.016049999999999898e-01 5.550829999999999931e-01 1.009179999999999938e-01 1.375329999999999886e-01 -4.688329999999999997e-01 -7.316970000000000418e-01 1.380014000000000074e+00 -5.512019999999999698e-01 5.222940000000000360e-01 -9.784310000000000507e-01 -3.299730000000000163e-01