1.880149999999999988e+00 1.176139999999999963e+00 1.751300000000000079e+00 3.908739999999999881e+00 4.883639999999999759e+00 1.415739999999999998e+00 3.408009999999999984e+00 4.069499999999999784e-01 7.290230000000000210e+00 1.716509999999999980e+00 3.965009999999999923e+00 7.457460000000000200e+00 3.776339999999999808e+00 2.920879999999999921e+00 1.149484999999999957e+01 1.986809999999999965e+00 6.418870000000000076e+00 1.134174999999999933e+01 2.033360000000000056e+00 3.665700000000000069e-01 1.726654999999999873e+01 2.001000000000000001e-01 4.057349999999999568e+00 1.715455000000000041e+01 3.914540000000000131e+00 6.438950000000000173e+00 2.081364999999999910e+01 2.132299999999999862e+00 2.920609999999999928e+00 2.077064999999999984e+01 3.929279999999999884e+00 2.205080000000000151e+00 2.666854999999999976e+01 1.811309999999999976e+00 5.771340000000000359e+00 2.642595000000000027e+01 3.910489999999999799e+00 2.593760000000000066e+00 2.834060000000000024e+00 1.854630000000000001e+00 5.876319999999999766e+00 2.871070000000000011e+00 3.761839999999999851e+00 2.781429999999999847e+00 6.188810000000000144e+00 1.524029999999999996e+00 6.328050000000000175e+00 5.914329999999999643e+00 3.967389999999999972e+00 2.181800000000000128e-01 2.855744999999999933e+01 1.832540000000000058e+00 3.918400000000000105e+00 2.836615000000000109e+01 3.995519999999999960e+00 5.715000000000000080e-01 1.272874999999999979e+01 3.871789999999999843e+00 5.131940000000000168e+00 1.287044999999999995e+01 2.647000000000000047e-02 6.376789999999999736e+00 1.580105000000000004e+01 2.197610000000000063e+00 2.724470000000000169e+00 1.616434999999999889e+01 1.753770000000000051e+00 2.394979999999999887e+00 9.672180000000000888e+00 3.580389999999999961e+00 5.725089999999999790e+00 9.371880000000000877e+00 1.851099999999999968e+00 5.387800000000000367e-01 2.215725000000000122e+01 4.012699999999999712e+00 4.004609999999999559e+00 2.227785000000000082e+01 1.786569999999999991e+00 1.209740000000000038e+00 2.539345000000000141e+01 3.816809999999999814e+00 4.553359999999999630e+00 2.515735000000000099e+01 4.038100000000000023e+00 1.365969999999999906e+00 1.886364999999999981e+01 1.975850000000000106e+00 5.041850000000000165e+00 1.897394999999999854e+01
1.767430000000000057e+00 8.427200000000000246e-01 1.604139999999999899e+00 1.779999999999999985e-02 4.453680000000000305e+00 1.657010000000000094e+00 3.871700000000000141e-01 6.885469999999999757e+00 7.135790000000000077e+00 2.269890000000000185e+00 3.593420000000000059e+00 7.545779999999999710e+00 3.843259999999999899e+00 2.273810000000000109e+00 1.153311000000000064e+01 1.388970000000000038e+00 6.144070000000000142e+00 1.123361000000000054e+01 1.781169999999999920e+00 1.273330000000000073e+00 1.742090999999999923e+01 3.629719999999999835e+00 4.804289999999999949e+00 1.733301000000000158e+01 3.891099999999999781e+00 1.703600000000000114e-01 2.104361000000000104e+01 1.798380000000000090e+00 3.785219999999999807e+00 2.110591000000000150e+01 3.832110000000000127e+00 2.032150000000000123e+00 2.686170999999999864e+01 1.765689999999999982e+00 5.753250000000000419e+00 2.656910999999999845e+01 3.897499999999999964e+00 1.884759999999999991e+00 2.916690000000000005e+00 2.073910000000000142e+00 5.555609999999999715e+00 3.027080000000000215e+00 1.661499999999999921e-01 2.315490000000000048e+00 6.274040000000000283e+00 2.445390000000000175e+00 5.772020000000000373e+00 5.817879999999999718e+00 2.555600000000000094e-01 6.574019999999999975e+00 2.869110999999999834e+01 2.041360000000000063e+00 2.960210000000000008e+00 2.877620999999999896e+01 3.365310000000000024e+00 4.490000000000000241e-02 1.287360999999999933e+01 3.517840000000000078e+00 4.811709999999999710e+00 1.253370999999999924e+01 3.851929999999999854e+00 1.875900000000000067e-01 1.606740999999999886e+01 1.614000000000000101e+00 3.650929999999999787e+00 1.605960999999999927e+01 1.875680000000000014e+00 1.891590000000000105e+00 9.721750000000000114e+00 3.064899999999999847e-01 5.221799999999999997e+00 9.052229999999999777e+00 1.741719999999999935e+00 1.338340000000000085e+00 2.244650999999999996e+01 3.866379999999999928e+00 5.018989999999999618e+00 2.236241000000000057e+01 1.995200000000000085e+00 8.931999999999999940e-01 2.524671000000000021e+01 3.880360000000000031e+00 4.401609999999999800e+00 2.559020999999999901e+01 3.636859999999999982e+00 2.681329999999999991e+00 1.926951000000000036e+01 1.961330000000000018e+00 6.274230000000000196e+00 1.928791000000000011e+01
2.067229999999999901e+00 1.098449999999999926e+00 1.745190000000000019e+00 8.498999999999999611e-02 4.640930000000000000e+00 1.421159999999999979e+00 4.129190000000000360e+00 7.279869999999999841e+00 7.462579999999999991e+00 2.057409999999999961e+00 3.859319999999999862e+00 7.704620000000000246e+00 4.040580000000000283e+00 2.553739999999999899e+00 1.159045000000000059e+01 2.391000000000000014e+00 6.452350000000000030e+00 1.152515000000000001e+01 2.465399999999999814e+00 1.454180000000000028e+00 1.810464999999999947e+01 4.066069999999999851e+00 5.081879999999999953e+00 1.798505000000000109e+01 3.387899999999999801e-01 7.175679999999999836e+00 2.159635000000000105e+01 2.505889999999999951e+00 3.425660000000000149e+00 2.186064999999999969e+01 4.258099999999999774e+00 2.286309999999999842e+00 2.846065000000000111e+01 1.909459999999999935e+00 6.503639999999999866e+00 2.818284999999999840e+01 2.041599999999999859e+00 9.271099999999999897e-01 4.270780000000000243e+00 3.971159999999999801e+00 5.305640000000000356e+00 3.943550000000000111e+00 3.740999999999999881e-02 2.428230000000000111e+00 6.511020000000000252e+00 2.178380000000000205e+00 6.009039999999999715e+00 6.086960000000000370e+00 4.171840000000000437e+00 1.741199999999999970e-01 2.219099999999999961e-01 2.129350000000000076e+00 3.578359999999999985e+00 1.320399999999999907e-01 4.174470000000000347e+00 2.800990000000000091e+00 1.399944999999999951e+01 2.245709999999999873e+00 6.716160000000000352e+00 1.400494999999999912e+01 3.327300000000000257e-01 2.276600000000000013e-01 1.685794999999999888e+01 1.882910000000000084e+00 3.782770000000000188e+00 1.670524999999999949e+01 2.031330000000000080e+00 1.300000000000000044e+00 1.003715000000000046e+01 1.930800000000000016e-01 4.999719999999999942e+00 1.022260999999999953e+01 2.459399999999999920e-01 3.042500000000000204e-01 2.407945000000000135e+01 1.840070000000000094e+00 3.914899999999999824e+00 2.425925000000000153e+01 2.162520000000000220e+00 1.453400000000000025e+00 2.676545000000000130e+01 4.051230000000000331e+00 5.050040000000000084e+00 2.724814999999999898e+01 3.027000000000000246e-01 2.357060000000000155e+00 2.032515000000000072e+01 2.445840000000000014e+00 5.831330000000000346e+00 2.032825000000000060e+01
1.932930000000000037e+00 1.135539999999999994e+00 1.499130000000000074e+00 3.648159999999999847e+00 4.778470000000000439e+00 1.572619999999999907e+00 3.504859999999999864e+00 3.198900000000000077e-01 7.021399999999999864e+00 1.744860000000000078e+00 4.058880000000000265e+00 7.593659999999999854e+00 3.600260000000000016e+00 2.606409999999999894e+00 1.160655999999999999e+01 1.767649999999999944e+00 6.365549999999999820e+00 1.124225999999999992e+01 2.092880000000000074e+00 4.878199999999999759e-01 1.739776000000000167e+01 4.049750000000000405e+00 4.183569999999999567e+00 1.720525999999999911e+01 1.642500000000000071e-01 6.506079999999999863e+00 2.096725999999999956e+01 2.161439999999999806e+00 3.064130000000000020e+00 2.083096000000000103e+01 3.830470000000000041e+00 2.477230000000000043e+00 2.672126000000000090e+01 1.868559999999999999e+00 6.132799999999999585e+00 2.670385999999999882e+01 4.077090000000000103e+00 2.379300000000000193e+00 2.761070000000000135e+00 1.700509999999999966e+00 5.911159999999999748e+00 2.864990000000000148e+00 3.809029999999999916e+00 2.729379999999999917e+00 6.312319999999999709e+00 1.555190000000000072e+00 6.212139999999999773e+00 5.725279999999999703e+00 3.763590000000000213e+00 6.888539999999999885e+00 2.860645999999999844e+01 1.898179999999999978e+00 3.324260000000000215e+00 2.854515999999999920e+01 3.710519999999999818e+00 1.727899999999999991e-01 1.284835999999999956e+01 3.744040000000000035e+00 5.015620000000000189e+00 1.262035999999999980e+01 4.243999999999999856e-02 6.496719999999999828e+00 1.576426000000000016e+01 2.087390000000000079e+00 2.832440000000000069e+00 1.607766000000000162e+01 1.698669999999999902e+00 2.198090000000000099e+00 9.924559999999999604e+00 3.460300000000000153e+00 5.736379999999999590e+00 9.012230000000000629e+00 2.245620000000000172e+00 7.086799999999999766e-01 2.223265999999999920e+01 1.901500000000000135e-01 4.235179999999999723e+00 2.224856000000000122e+01 1.906779999999999919e+00 1.242760000000000087e+00 2.537806000000000139e+01 3.870769999999999822e+00 4.728769999999999918e+00 2.543606000000000122e+01 2.393000000000000127e-01 1.709529999999999994e+00 1.918205999999999989e+01 2.290960000000000107e+00 5.368629999999999569e+00 1.919096000000000046e+01
1.766080000000000094e+00 1.030710000000000015e+00 1.404449999999999976e+00 3.896220000000000017e+00 4.756980000000000430e+00 1.298070000000000057e+00 4.746000000000000218e-02 3.160000000000000031e-01 6.737300000000000288e+00 1.650339999999999918e+00 3.692530000000000090e+00 7.498090000000000366e+00 1.095799999999999969e-01 2.666619999999999990e+00 1.111088999999999949e+01 2.021419999999999995e+00 6.356359999999999566e+00 1.118139000000000038e+01 1.925189999999999957e+00 1.443189999999999973e+00 1.703649000000000058e+01 -1.293000000000000052e-02 4.900190000000000268e+00 1.722888999999999982e+01 3.805320000000000036e+00 4.556700000000000195e-01 2.060809000000000069e+01 1.950800000000000090e+00 4.052120000000000388e+00 2.056569000000000003e+01 -2.044400000000000106e-01 2.542419999999999902e+00 2.635608999999999824e+01 1.680209999999999981e+00 5.969020000000000437e+00 2.672519000000000133e+01 2.468300000000000161e+00 1.239999999999999991e+00 3.847690000000000055e+00 3.522079999999999878e+00 4.618210000000000370e+00 3.604779999999999873e+00 3.721249999999999947e+00 2.717750000000000110e+00 5.923530000000000406e+00 2.153989999999999849e+00 5.967629999999999768e+00 6.074360000000000426e+00 3.509040000000000159e+00 7.337830000000000297e+00 2.883949000000000140e+01 1.344649999999999901e+00 3.656179999999999986e+00 2.878128999999999849e+01 1.478800000000000114e-01 2.265099999999999891e+00 1.353098999999999918e+01 2.192400000000000126e+00 5.964459999999999873e+00 1.363618999999999915e+01 -6.599999999999999964e-03 7.325669999999999682e+00 1.608209000000000088e+01 2.032379999999999853e+00 3.742090000000000138e+00 1.571099000000000068e+01 1.624880000000000102e+00 1.123920000000000030e+00 9.457629999999999981e+00 1.667500000000000093e-01 4.827639999999999709e+00 9.743449999999999278e+00 3.587660000000000071e+00 6.948159999999999670e+00 2.307319000000000031e+01 1.698069999999999968e+00 3.894470000000000098e+00 2.299799000000000149e+01 1.799520000000000008e+00 1.080510000000000081e+00 2.544868999999999915e+01 3.720349999999999824e+00 4.966669999999999696e+00 2.524288999999999916e+01 -1.290000000000000001e-02 2.814950000000000063e+00 1.901908999999999850e+01 1.814109999999999889e+00 6.430380000000000429e+00 1.926308999999999827e+01
2.202290000000000081e+00 1.119820000000000038e+00 1.376349999999999962e+00 2.241599999999999981e-01 4.721099999999999852e+00 1.808769999999999989e+00 3.316999999999999948e-01 6.995659999999999989e+00 7.307599999999999874e+00 2.242719999999999825e+00 3.740479999999999805e+00 7.351639999999999731e+00 3.989100000000000090e+00 2.389569999999999972e+00 1.091920999999999964e+01 1.783509999999999929e+00 5.943570000000000242e+00 1.145761000000000074e+01 1.557029999999999914e+00 9.563899999999999624e-01 1.699290999999999840e+01 3.499029999999999863e+00 4.577110000000000234e+00 1.692321000000000097e+01 3.444960000000000022e+00 6.778220000000000134e+00 2.075061000000000178e+01 1.456429999999999891e+00 3.235689999999999955e+00 2.073830999999999847e+01 3.960690000000000044e+00 2.274300000000000210e+00 2.655090999999999823e+01 1.913219999999999921e+00 5.858489999999999753e+00 2.654110999999999976e+01 1.762000000000000025e-02 2.269820000000000171e+00 2.878470000000000084e+00 2.261969999999999814e+00 5.921109999999999651e+00 3.032319999999999904e+00 6.994000000000000217e-02 2.486310000000000020e+00 5.973320000000000185e+00 2.297699999999999854e+00 5.976860000000000284e+00 5.824499999999999567e+00 4.021620000000000417e+00 6.942680000000000184e+00 2.831051000000000073e+01 2.060210000000000097e+00 3.425889999999999880e+00 2.835611000000000104e+01 3.719809999999999839e+00 3.506199999999999872e-01 1.260960999999999999e+01 3.682100000000000151e+00 4.388639999999999652e+00 1.249100999999999928e+01 3.541269999999999918e+00 6.889560000000000350e+00 1.553570999999999991e+01 1.553849999999999953e+00 3.238919999999999799e+00 1.564780999999999977e+01 1.990949999999999998e+00 1.566719999999999891e+00 9.371990000000000265e+00 5.956500000000000128e-01 4.993470000000000297e+00 9.198499999999999233e+00 1.413960000000000106e+00 9.067499999999999449e-01 2.202501000000000175e+01 3.443900000000000183e+00 4.411749999999999616e+00 2.200061000000000178e+01 2.053529999999999855e+00 1.138649999999999940e+00 2.512741000000000113e+01 3.971719999999999917e+00 4.485319999999999752e+00 2.508911000000000158e+01 3.163580000000000059e+00 2.227129999999999832e+00 1.893180999999999869e+01 1.074600000000000000e+00 5.639920000000000044e+00 1.891640999999999906e+01
1.732129999999999947e+00 8.671900000000000164e-01 1.506629999999999914e+00 3.752650000000000041e+00 4.297760000000000247e+00 1.612149999999999972e+00 3.349460000000000104e+00 4.520299999999999874e-01 7.020789999999999864e+00 1.533660000000000023e+00 4.249859999999999971e+00 7.625119999999999898e+00 3.679450000000000109e+00 2.931189999999999962e+00 1.141447999999999929e+01 1.838319999999999954e+00 6.455449999999999910e+00 1.127288000000000068e+01 2.379770000000000163e+00 7.503199999999999870e-01 1.705968000000000018e+01 3.740399999999999836e-01 4.153749999999999609e+00 1.727527999999999864e+01 3.884400000000000075e-01 6.550259999999999749e+00 2.091817999999999955e+01 2.421580000000000066e+00 2.949180000000000135e+00 2.083027999999999835e+01 3.564350000000000129e+00 2.004080000000000084e+00 2.660978000000000065e+01 1.608039999999999914e+00 5.411299999999999777e+00 2.657807999999999993e+01 3.682279999999999998e+00 2.027670000000000083e+00 2.929300000000000015e+00 1.618959999999999955e+00 5.716560000000000308e+00 3.017939999999999845e+00 3.684730000000000061e+00 2.991709999999999869e+00 6.408019999999999605e+00 1.291740000000000110e+00 6.286319999999999908e+00 5.858399999999999608e+00 3.777249999999999996e+00 6.919130000000000003e+00 2.855918000000000134e+01 1.938020000000000076e+00 3.470950000000000202e+00 2.868468000000000018e+01 3.808730000000000171e+00 5.985700000000000465e-01 1.266928000000000054e+01 3.819809999999999928e+00 5.286069999999999602e+00 1.267057999999999929e+01 2.715899999999999981e-01 6.631350000000000300e+00 1.577288000000000068e+01 2.423830000000000151e+00 3.046710000000000029e+00 1.592207999999999934e+01 1.412840000000000096e+00 2.471109999999999918e+00 9.589779999999999305e+00 3.227259999999999796e+00 5.948150000000000048e+00 9.052009999999999224e+00 2.316879999999999828e+00 7.545800000000000285e-01 2.229467999999999961e+01 4.100400000000000156e-01 4.162169999999999703e+00 2.214458000000000126e+01 1.581290000000000084e+00 8.128300000000000525e-01 2.530287999999999826e+01 3.557990000000000208e+00 4.301470000000000127e+00 2.530488000000000071e+01 2.987199999999999855e-01 1.982560000000000100e+00 1.896547999999999945e+01 2.426480000000000192e+00 5.618599999999999817e+00 1.893898000000000081e+01
1.536780000000000035e+00 6.486699999999999688e-01 1.602929999999999966e+00 3.741870000000000029e+00 4.251689999999999969e+00 1.600940000000000030e+00 3.440440000000000165e+00 3.043299999999999894e-01 6.981659999999999755e+00 1.436080000000000023e+00 4.052760000000000140e+00 7.620549999999999713e+00 3.905870000000000175e+00 2.970330000000000137e+00 1.144068000000000040e+01 1.747970000000000024e+00 6.762920000000000265e+00 1.119637999999999955e+01 2.258579999999999810e+00 7.529299999999999882e-01 1.706797999999999860e+01 3.186300000000000243e-01 4.346409999999999663e+00 1.713017999999999930e+01 3.153599999999999737e-01 6.732809999999999739e+00 2.089598000000000155e+01 2.298039999999999861e+00 3.332770000000000010e+00 2.079037999999999897e+01 3.690650000000000208e+00 2.055559999999999832e+00 2.674688000000000088e+01 1.782299999999999995e+00 5.363959999999999617e+00 2.646117999999999881e+01 3.666840000000000099e+00 1.924539999999999917e+00 2.841689999999999827e+00 1.757870000000000044e+00 5.578030000000000044e+00 3.106430000000000025e+00 3.653859999999999886e+00 2.850229999999999819e+00 6.253659999999999997e+00 1.397899999999999920e+00 6.194840000000000124e+00 5.765810000000000102e+00 3.617719999999999825e+00 6.831789999999999807e+00 2.853577999999999903e+01 1.430569999999999897e+00 3.370330000000000048e+00 2.858548000000000044e+01 3.836419999999999941e+00 6.750800000000000134e-01 1.268908000000000058e+01 3.883109999999999840e+00 5.274840000000000195e+00 1.264767999999999937e+01 2.160799999999999943e-01 6.569160000000000110e+00 1.571297999999999995e+01 2.358600000000000030e+00 2.994720000000000049e+00 1.593507999999999925e+01 1.677009999999999890e+00 2.407900000000000151e+00 9.711679999999999424e+00 3.209130000000000038e+00 5.830149999999999721e+00 9.125420000000000087e+00 2.278669999999999973e+00 9.858999999999999986e-01 2.211868000000000123e+01 3.308699999999999974e-01 4.432949999999999946e+00 2.228178000000000125e+01 1.845599999999999907e+00 7.251699999999999813e-01 2.529677999999999827e+01 3.807059999999999889e+00 4.157479999999999620e+00 2.523407999999999873e+01 4.124900000000000233e-01 1.928220000000000045e+00 1.893628000000000000e+01 2.292120000000000157e+00 5.413840000000000430e+00 1.896008000000000138e+01
1.846500000000000030e+00 7.898899999999999810e-01 1.578719999999999901e+00 7.289999999999999605e-03 4.455070000000000086e+00 1.486750000000000016e+00 2.960900000000000198e-01 7.031060000000000088e+00 7.132990000000000386e+00 2.144289999999999807e+00 3.606030000000000069e+00 7.579959999999999809e+00 3.766300000000000203e+00 2.497840000000000060e+00 1.140149000000000079e+01 1.387590000000000101e+00 6.190100000000000158e+00 1.147499000000000002e+01 1.929210000000000091e+00 1.427829999999999933e+00 1.745719000000000065e+01 3.795450000000000212e+00 4.853170000000000428e+00 1.741319000000000017e+01 3.855729999999999880e+00 1.924800000000000122e-01 2.113328999999999880e+01 1.876710000000000100e+00 3.744190000000000129e+00 2.111338999999999899e+01 3.928599999999999870e+00 2.056869999999999976e+00 2.691599000000000075e+01 1.676819999999999977e+00 5.664780000000000371e+00 2.675168999999999997e+01 3.910519999999999996e+00 1.951969999999999983e+00 2.989679999999999893e+00 2.056319999999999926e+00 5.541979999999999684e+00 2.909920000000000062e+00 1.116199999999999970e-01 2.281169999999999920e+00 6.239289999999999559e+00 2.341439999999999966e+00 5.748590000000000089e+00 5.924509999999999721e+00 2.865099999999999869e-01 6.666389999999999816e+00 2.873629000000000033e+01 1.955160000000000009e+00 2.916700000000000070e+00 2.878039000000000058e+01 3.509710000000000107e+00 1.072700000000000042e-01 1.270248999999999917e+01 3.617249999999999854e+00 4.614040000000000141e+00 1.272308999999999912e+01 3.940770000000000106e+00 4.691000000000000031e-02 1.620198999999999856e+01 1.656309999999999949e+00 3.649140000000000050e+00 1.603939000000000092e+01 1.775600000000000067e+00 1.837579999999999991e+00 9.770720000000000738e+00 4.294100000000000139e-01 5.169450000000000323e+00 9.108760000000000190e+00 1.656779999999999919e+00 1.488730000000000109e+00 2.253098999999999918e+01 3.920059999999999878e+00 4.859200000000000408e+00 2.246078999999999937e+01 1.981119999999999992e+00 8.596099999999999852e-01 2.547239000000000075e+01 3.669490000000000141e+00 4.396740000000000315e+00 2.553228999999999971e+01 3.767679999999999918e+00 2.608060000000000045e+00 1.913468999999999909e+01 1.874330000000000052e+00 6.265550000000000175e+00 1.929109000000000052e+01
2.385670000000000179e+00 1.530410000000000048e+00 1.688530000000000086e+00 3.778659999999999908e+00 5.014549999999999841e+00 1.300769999999999982e+00 4.914000000000000312e-02 7.279720000000000191e+00 7.414839999999999876e+00 2.110650000000000137e+00 3.539229999999999876e+00 7.477240000000000109e+00 3.891300000000000203e+00 2.846359999999999779e+00 1.152637999999999963e+01 1.562640000000000029e+00 6.511549999999999727e+00 1.160148000000000046e+01 1.688309999999999977e+00 1.286999999999999922e+00 1.774627999999999872e+01 -3.283400000000000207e-01 5.246739999999999959e+00 1.729578000000000060e+01 -5.686999999999999694e-02 7.738800000000000345e+00 2.123478000000000065e+01 1.280799999999999939e+00 4.023130000000000095e+00 2.098517999999999972e+01 -4.241300000000000070e-01 2.383220000000000116e+00 2.727507999999999910e+01 1.623930000000000096e+00 6.558639999999999581e+00 2.709807999999999950e+01 2.812570000000000014e+00 1.685589999999999922e+00 4.149700000000000166e+00 4.124410000000000132e+00 5.154639999999999667e+00 3.832669999999999799e+00 -1.072400000000000020e-01 2.375539999999999985e+00 6.359849999999999781e+00 2.346459999999999990e+00 6.079620000000000246e+00 6.157149999999999679e+00 2.953030000000000044e+00 7.883070000000000022e+00 2.953097999999999956e+01 1.629569999999999963e+00 3.905590000000000117e+00 1.709999999999999932e-03 3.760860000000000092e+00 2.613719999999999821e+00 1.410158000000000023e+01 1.721500000000000030e+00 6.566880000000000273e+00 1.408338000000000001e+01 3.557809999999999917e+00 7.607149999999999856e+00 1.615457999999999927e+01 1.542740000000000000e+00 3.686319999999999819e+00 1.629728000000000065e+01 1.719379999999999908e+00 1.795029999999999903e+00 1.031550000000000011e+01 -2.972999999999999948e-02 5.153999999999999915e+00 9.875299999999999301e+00 2.936000000000000276e-01 1.084859999999999935e+00 2.377947999999999951e+01 1.808079999999999909e+00 4.707919999999999661e+00 2.335157999999999845e+01 1.673969999999999958e+00 1.561090000000000089e+00 2.567078000000000060e+01 3.679199999999999804e+00 5.028389999999999915e+00 2.636017999999999972e+01 3.825260000000000105e+00 2.575149999999999828e+00 1.943728000000000122e+01 2.063410000000000188e+00 6.624640000000000306e+00 1.973038000000000025e+01
1.947789999999999910e+00 9.461899999999999755e-01 1.335390000000000077e+00 4.282910000000000217e+00 4.621850000000000236e+00 1.232460000000000111e+00 4.289150000000000240e+00 1.754900000000000071e-01 7.298280000000000101e+00 2.176369999999999916e+00 3.865369999999999973e+00 7.857289999999999885e+00 4.642899999999999805e-01 2.365180000000000060e+00 1.162060999999999922e+01 2.484389999999999876e+00 5.955720000000000347e+00 1.153311000000000064e+01 2.666749999999999954e+00 1.310349999999999904e+00 1.751941000000000059e+01 4.745269999999999655e+00 4.780730000000000146e+00 1.762810999999999950e+01 8.445000000000000284e-01 6.924489999999999590e+00 2.148861000000000132e+01 2.583750000000000213e+00 3.373190000000000133e+00 2.168150999999999939e+01 4.972500000000000142e+00 2.431259999999999977e+00 2.794891000000000147e+01 2.991019999999999790e+00 5.837989999999999569e+00 2.745191000000000159e+01 1.963729999999999976e+00 8.042399999999999549e-01 3.833579999999999988e+00 6.897100000000000453e-01 5.127749999999999808e+00 3.609799999999999898e+00 4.267809999999999881e+00 2.700930000000000053e+00 6.536559999999999704e+00 2.277029999999999887e+00 5.891600000000000392e+00 6.153920000000000279e+00 5.019280000000000186e+00 7.147859999999999658e+00 2.998790999999999940e+01 3.084439999999999849e+00 3.567689999999999806e+00 3.009030999999999878e+01 4.274029999999999774e+00 2.360240000000000116e+00 1.411781000000000041e+01 3.044270000000000032e+00 6.132979999999999876e+00 1.414270999999999923e+01 7.326899999999999524e-01 7.054269999999999818e+00 1.643760999999999939e+01 2.578969999999999985e+00 3.726890000000000036e+00 1.642560999999999893e+01 2.784809999999999786e+00 1.159540000000000015e+00 1.020081000000000060e+01 4.769499999999999851e-01 4.642890000000000406e+00 1.013821000000000083e+01 4.444449999999999790e+00 4.378600000000000270e-01 2.381000999999999834e+01 2.974930000000000074e+00 3.838820000000000121e+00 2.413910999999999873e+01 2.970359999999999889e+00 1.395399999999999974e+00 2.663551000000000002e+01 9.383500000000000174e-01 4.660059999999999647e+00 2.623261000000000109e+01 7.156299999999999883e-01 2.307409999999999961e+00 2.004610999999999876e+01 2.826319999999999943e+00 5.734930000000000305e+00 2.010080999999999918e+01
1.931750000000000078e+00 1.117140000000000022e+00 1.576019999999999976e+00 3.586160000000000014e+00 4.744580000000000020e+00 1.558780000000000054e+00 3.453339999999999854e+00 2.632599999999999940e-01 7.005370000000000097e+00 1.782129999999999992e+00 3.997669999999999835e+00 7.479320000000000412e+00 3.610920000000000130e+00 2.605239999999999778e+00 1.158456999999999937e+01 1.772040000000000060e+00 6.317359999999999864e+00 1.118516999999999939e+01 2.034199999999999786e+00 4.768200000000000216e-01 1.732297000000000153e+01 1.840000000000000056e-03 4.190109999999999779e+00 1.713307000000000002e+01 1.715700000000000003e-01 6.522920000000000051e+00 2.083896999999999977e+01 2.184629999999999850e+00 3.053059999999999885e+00 2.076807000000000158e+01 3.829779999999999962e+00 2.427960000000000118e+00 2.665516999999999825e+01 1.890260000000000051e+00 6.147660000000000124e+00 2.660187000000000168e+01 4.068900000000000183e+00 2.419639999999999791e+00 2.754729999999999901e+00 1.712919999999999998e+00 5.863970000000000127e+00 2.886829999999999785e+00 3.827659999999999840e+00 2.740299999999999958e+00 6.255650000000000155e+00 1.518340000000000023e+00 6.205350000000000144e+00 5.713899999999999757e+00 3.751030000000000086e+00 6.830020000000000202e+00 2.853177000000000163e+01 1.866079999999999961e+00 3.277470000000000105e+00 2.841356999999999999e+01 3.675460000000000171e+00 1.787300000000000000e-01 1.281836999999999982e+01 3.755720000000000169e+00 4.997020000000000017e+00 1.260666999999999938e+01 4.072770000000000223e+00 6.503000000000000114e+00 1.579326999999999970e+01 2.060449999999999893e+00 2.847570000000000157e+00 1.607967000000000013e+01 1.620330000000000048e+00 2.223689999999999944e+00 9.923370000000000246e+00 3.482089999999999907e+00 5.739349999999999952e+00 9.046269999999999811e+00 2.237260000000000026e+00 7.585899999999999865e-01 2.217766999999999911e+01 1.918199999999999905e-01 4.220460000000000100e+00 2.224296999999999969e+01 1.866139999999999910e+00 1.270729999999999915e+00 2.526387000000000072e+01 3.878509999999999902e+00 4.696320000000000050e+00 2.532017000000000095e+01 2.264799999999999869e-01 1.735179999999999945e+00 1.907716999999999885e+01 2.339749999999999996e+00 5.340569999999999595e+00 1.908537000000000106e+01
2.037370000000000125e+00 1.076750000000000096e+00 1.771679999999999922e+00 7.899000000000000465e-02 4.597199999999999953e+00 1.415680000000000049e+00 4.143060000000000187e+00 7.192129999999999690e+00 7.376409999999999911e+00 2.089109999999999800e+00 3.841670000000000140e+00 7.669920000000000293e+00 3.984389999999999876e+00 2.504090000000000149e+00 1.152124000000000059e+01 2.414470000000000116e+00 6.433119999999999727e+00 1.145794000000000068e+01 2.516160000000000174e+00 1.461549999999999905e+00 1.804184000000000054e+01 4.041949999999999932e+00 5.144059999999999633e+00 1.792783999999999978e+01 3.769899999999999918e-01 7.092130000000000045e+00 2.148573999999999984e+01 2.544389999999999930e+00 3.361260000000000137e+00 2.181334000000000017e+01 4.226210000000000022e+00 2.251829999999999998e+00 2.834204000000000079e+01 1.838640000000000052e+00 6.532280000000000086e+00 2.802784000000000120e+01 2.021009999999999973e+00 8.735100000000000087e-01 4.308080000000000354e+00 3.898190000000000044e+00 5.362630000000000230e+00 3.893369999999999997e+00 4.148170000000000357e+00 2.467470000000000052e+00 6.497410000000000352e+00 2.097309999999999786e+00 5.994559999999999889e+00 6.039150000000000240e+00 4.185800000000000409e+00 1.563100000000000045e-01 2.693300000000000138e-01 2.151209999999999845e+00 3.526149999999999896e+00 1.817699999999999871e-01 4.156629999999999825e+00 2.857990000000000030e+00 1.391684000000000054e+01 2.241200000000000081e+00 6.794539999999999580e+00 1.389443999999999946e+01 3.502799999999999803e-01 2.125599999999999989e-01 1.688733999999999824e+01 1.805160000000000098e+00 3.760619999999999852e+00 1.664504000000000161e+01 2.020010000000000083e+00 1.341879999999999962e+00 9.985480000000000800e+00 2.379600000000000048e-01 5.079500000000000348e+00 1.015962999999999994e+01 2.802899999999999836e-01 3.633100000000000218e-01 2.388673999999999964e+01 1.764440000000000008e+00 3.911039999999999850e+00 2.412313999999999936e+01 2.109220000000000095e+00 1.445019999999999971e+00 2.680224000000000117e+01 4.016079999999999650e+00 4.997779999999999667e+00 2.729164000000000101e+01 3.659200000000000230e-01 2.240409999999999791e+00 2.022774000000000072e+01 2.526489999999999903e+00 5.753320000000000434e+00 2.025713999999999970e+01