1.984699999999999909e+00 1.145850000000000035e+00 1.178051999999999921e+01 2.000000000000000164e-05 4.583420000000000272e+00 1.178051999999999921e+01 5.954069999999999752e+00 1.145850000000000035e+00 1.178051999999999921e+01 3.969390000000000196e+00 4.583420000000000272e+00 1.178051999999999921e+01 -8.365000000000000213e-02 2.340009999999999923e+00 1.612529999999999930e+01 -2.068330000000000002e+00 5.777580000000000382e+00 1.612529999999999930e+01 3.885720000000000063e+00 2.340009999999999923e+00 1.612529999999999930e+01 1.901029999999999998e+00 5.777580000000000382e+00 1.612529999999999930e+01 7.879789999999999850e+00 3.402999999999999775e-02 1.043811999999999962e+01 5.895109999999999850e+00 3.471600000000000019e+00 1.043811999999999962e+01 3.910419999999999785e+00 3.402999999999999775e-02 1.043811999999999962e+01 1.925740000000000007e+00 3.471600000000000019e+00 1.043811999999999962e+01 5.612599999999999811e-01 1.967670000000000030e+00 1.374540000000000006e+01 -1.423429999999999973e+00 5.405240000000000045e+00 1.374540000000000006e+01 4.530619999999999870e+00 1.967670000000000030e+00 1.374540000000000006e+01 2.545939999999999870e+00 5.405240000000000045e+00 1.374540000000000006e+01 7.876409999999999911e+00 3.597999999999999809e-02 1.741893999999999920e+01 5.891720000000000290e+00 3.473559999999999981e+00 1.741893999999999920e+01 3.907039999999999846e+00 3.597999999999999809e-02 1.741893999999999920e+01 1.922360000000000069e+00 3.473559999999999981e+00 1.741893999999999920e+01
1.984699999999999909e+00 1.145850000000000035e+00 1.171067999999999998e+01 2.000000000000000164e-05 4.583420000000000272e+00 1.171067999999999998e+01 5.954069999999999752e+00 1.145850000000000035e+00 1.171067999999999998e+01 3.969390000000000196e+00 4.583420000000000272e+00 1.171067999999999998e+01 -8.326000000000000068e-02 2.339780000000000193e+00 1.605465999999999838e+01 -2.067940000000000111e+00 5.777350000000000207e+00 1.605465999999999838e+01 3.886109999999999953e+00 2.339780000000000193e+00 1.605465999999999838e+01 1.901429999999999954e+00 5.777350000000000207e+00 1.605465999999999838e+01 7.917679999999999829e+00 1.216000000000000067e-02 1.041699999999999982e+01 5.932999999999999829e+00 3.449730000000000185e+00 1.041699999999999982e+01 3.948319999999999830e+00 1.216000000000000067e-02 1.041699999999999982e+01 1.963640000000000052e+00 3.449730000000000185e+00 1.041699999999999982e+01 1.346360000000000001e+00 1.514389999999999903e+00 1.409342000000000006e+01 -6.383299999999999530e-01 4.951970000000000205e+00 1.409342000000000006e+01 5.315719999999999779e+00 1.514389999999999903e+00 1.409342000000000006e+01 3.331039999999999779e+00 4.951970000000000205e+00 1.409342000000000006e+01 7.914509999999999934e+00 1.397999999999999937e-02 1.739773999999999887e+01 5.929829999999999934e+00 3.451560000000000183e+00 1.739773999999999887e+01 3.945149999999999935e+00 1.397999999999999937e-02 1.739773999999999887e+01 1.960469999999999935e+00 3.451560000000000183e+00 1.739773999999999887e+01
1.984699999999999909e+00 1.145850000000000035e+00 1.179049999999999976e+01 2.000000000000000164e-05 4.583420000000000272e+00 1.179049999999999976e+01 5.954069999999999752e+00 1.145850000000000035e+00 1.179049999999999976e+01 3.969390000000000196e+00 4.583420000000000272e+00 1.179049999999999976e+01 -7.596999999999999587e-02 2.335580000000000211e+00 1.611896000000000129e+01 -2.060649999999999871e+00 5.773150000000000226e+00 1.611896000000000129e+01 3.893400000000000194e+00 2.335580000000000211e+00 1.611896000000000129e+01 1.908709999999999907e+00 5.773150000000000226e+00 1.611896000000000129e+01 7.880489999999999995e+00 3.363000000000000017e-02 1.043765999999999927e+01 5.895809999999999995e+00 3.471200000000000063e+00 1.043765999999999927e+01 3.911119999999999930e+00 3.363000000000000017e-02 1.043765999999999927e+01 1.926439999999999930e+00 3.471200000000000063e+00 1.043765999999999927e+01 4.633800000000000141e-01 2.024179999999999868e+00 1.369689999999999941e+01 -1.521300000000000097e+00 5.461750000000000327e+00 1.369689999999999941e+01 4.432750000000000412e+00 2.024179999999999868e+00 1.369689999999999941e+01 2.448069999999999968e+00 5.461750000000000327e+00 1.369689999999999941e+01 7.880110000000000170e+00 3.384999999999999815e-02 1.741374000000000066e+01 5.895419999999999661e+00 3.471420000000000172e+00 1.741374000000000066e+01 3.910740000000000105e+00 3.384999999999999815e-02 1.741374000000000066e+01 1.926060000000000105e+00 3.471420000000000172e+00 1.741374000000000066e+01
1.984699999999999909e+00 1.145850000000000035e+00 1.169072000000000067e+01 2.000000000000000164e-05 4.583420000000000272e+00 1.169072000000000067e+01 5.954069999999999752e+00 1.145850000000000035e+00 1.169072000000000067e+01 3.969390000000000196e+00 4.583420000000000272e+00 1.169072000000000067e+01 -6.354999999999999538e-02 2.328399999999999803e+00 1.599915999999999983e+01 -2.048220000000000152e+00 5.765979999999999883e+00 1.599915999999999983e+01 3.905829999999999913e+00 2.328399999999999803e+00 1.599915999999999983e+01 1.921140000000000070e+00 5.765979999999999883e+00 1.599915999999999983e+01 7.925609999999999822e+00 7.579999999999999932e-03 1.039265999999999934e+01 5.940929999999999822e+00 3.445149999999999935e+00 1.039265999999999934e+01 3.956240000000000201e+00 7.579999999999999932e-03 1.039265999999999934e+01 1.971559999999999979e+00 3.445149999999999935e+00 1.039265999999999934e+01 1.562869999999999981e+00 1.389399999999999968e+00 1.415334000000000003e+01 -4.218199999999999728e-01 4.826970000000000205e+00 1.415334000000000003e+01 5.532230000000000203e+00 1.389399999999999968e+00 1.415334000000000003e+01 3.547550000000000203e+00 4.826970000000000205e+00 1.415334000000000003e+01 7.927950000000000053e+00 6.230000000000000294e-03 1.736270000000000024e+01 5.943260000000000431e+00 3.443799999999999972e+00 1.736270000000000024e+01 3.958579999999999988e+00 6.230000000000000294e-03 1.736270000000000024e+01 1.973899999999999988e+00 3.443799999999999972e+00 1.736270000000000024e+01
1.984699999999999909e+00 1.145850000000000035e+00 1.170069999999999943e+01 2.000000000000000164e-05 4.583420000000000272e+00 1.170069999999999943e+01 5.954069999999999752e+00 1.145850000000000035e+00 1.170069999999999943e+01 3.969390000000000196e+00 4.583420000000000272e+00 1.170069999999999943e+01 -7.506999999999999784e-02 2.335059999999999913e+00 1.602766000000000091e+01 -2.059759999999999813e+00 5.772630000000000372e+00 1.602766000000000091e+01 3.894299999999999873e+00 2.335059999999999913e+00 1.602766000000000091e+01 1.909620000000000095e+00 5.772630000000000372e+00 1.602766000000000091e+01 7.921809999999999796e+00 9.780000000000000498e-03 1.040569999999999951e+01 5.937129999999999797e+00 3.447350000000000136e+00 1.040569999999999951e+01 3.952440000000000175e+00 9.780000000000000498e-03 1.040569999999999951e+01 1.967759999999999954e+00 3.447350000000000136e+00 1.040569999999999951e+01 1.455529999999999990e+00 1.451370000000000049e+00 1.412668000000000035e+01 -5.291500000000000092e-01 4.888930000000000220e+00 1.412668000000000035e+01 5.424890000000000434e+00 1.451370000000000049e+00 1.412668000000000035e+01 3.440220000000000056e+00 4.888930000000000220e+00 1.412668000000000035e+01 7.921700000000000408e+00 9.830000000000000196e-03 1.738154000000000110e+01 5.937009999999999899e+00 3.447410000000000085e+00 1.738154000000000110e+01 3.952339999999999964e+00 9.830000000000000196e-03 1.738154000000000110e+01 1.967649999999999899e+00 3.447410000000000085e+00 1.738154000000000110e+01
1.984699999999999909e+00 1.145850000000000035e+00 1.173063999999999929e+01 2.000000000000000164e-05 4.583420000000000272e+00 1.173063999999999929e+01 5.954069999999999752e+00 1.145850000000000035e+00 1.173063999999999929e+01 3.969390000000000196e+00 4.583420000000000272e+00 1.173063999999999929e+01 -9.093999999999999306e-02 2.344219999999999970e+00 1.609832000000000107e+01 -2.075619999999999798e+00 5.781789999999999985e+00 1.609832000000000107e+01 3.878429999999999822e+00 2.344219999999999970e+00 1.609832000000000107e+01 1.893750000000000044e+00 5.781789999999999985e+00 1.609832000000000107e+01 7.907899999999999707e+00 1.779999999999999985e-02 1.043295999999999957e+01 5.923210000000000086e+00 3.455379999999999896e+00 1.043295999999999957e+01 3.938540000000000152e+00 1.779999999999999985e-02 1.043295999999999957e+01 1.953850000000000087e+00 3.455379999999999896e+00 1.043295999999999957e+01 1.121080000000000076e+00 1.644460000000000033e+00 1.400876000000000055e+01 -8.636000000000000343e-01 5.082029999999999603e+00 1.400876000000000055e+01 5.090449999999999697e+00 1.644460000000000033e+00 1.400876000000000055e+01 3.105760000000000076e+00 5.082029999999999603e+00 1.400876000000000055e+01 7.898719999999999963e+00 2.309999999999999901e-02 1.741956000000000060e+01 5.914039999999999964e+00 3.460669999999999913e+00 1.741956000000000060e+01 3.929359999999999964e+00 2.309999999999999901e-02 1.741956000000000060e+01 1.944669999999999899e+00 3.460669999999999913e+00 1.741956000000000060e+01
1.984699999999999909e+00 1.145850000000000035e+00 1.177054000000000045e+01 2.000000000000000164e-05 4.583420000000000272e+00 1.177054000000000045e+01 5.954069999999999752e+00 1.145850000000000035e+00 1.177054000000000045e+01 3.969390000000000196e+00 4.583420000000000272e+00 1.177054000000000045e+01 -8.845000000000000084e-02 2.342779999999999863e+00 1.612869999999999848e+01 -2.073139999999999983e+00 5.780350000000000321e+00 1.612869999999999848e+01 3.880920000000000147e+00 2.342779999999999863e+00 1.612869999999999848e+01 1.896230000000000082e+00 5.780350000000000321e+00 1.612869999999999848e+01 7.882520000000000415e+00 3.246000000000000274e-02 1.043890000000000029e+01 5.897829999999999906e+00 3.470029999999999948e+00 1.043890000000000029e+01 3.913149999999999906e+00 3.246000000000000274e-02 1.043890000000000029e+01 1.928469999999999906e+00 3.470029999999999948e+00 1.043890000000000029e+01 6.645199999999999996e-01 1.908050000000000024e+00 1.379700000000000060e+01 -1.320160000000000000e+00 5.345620000000000260e+00 1.379700000000000060e+01 4.633899999999999686e+00 1.908050000000000024e+00 1.379700000000000060e+01 2.649220000000000130e+00 5.345620000000000260e+00 1.379700000000000060e+01 7.876039999999999708e+00 3.620000000000000301e-02 1.742323999999999984e+01 5.891350000000000087e+00 3.473770000000000024e+00 1.742323999999999984e+01 3.906680000000000152e+00 3.620000000000000301e-02 1.742323999999999984e+01 1.921990000000000087e+00 3.473770000000000024e+00 1.742323999999999984e+01
1.984699999999999909e+00 1.145850000000000035e+00 1.175057999999999936e+01 2.000000000000000164e-05 4.583420000000000272e+00 1.175057999999999936e+01 5.954069999999999752e+00 1.145850000000000035e+00 1.175057999999999936e+01 3.969390000000000196e+00 4.583420000000000272e+00 1.175057999999999936e+01 -9.188999999999999946e-02 2.344770000000000021e+00 1.612369999999999948e+01 -2.076569999999999805e+00 5.782339999999999591e+00 1.612369999999999948e+01 3.877479999999999816e+00 2.344770000000000021e+00 1.612369999999999948e+01 1.892789999999999973e+00 5.782339999999999591e+00 1.612369999999999948e+01 7.894779999999999909e+00 2.537999999999999978e-02 1.043932000000000038e+01 5.910099999999999909e+00 3.462950000000000195e+00 1.043932000000000038e+01 3.925409999999999844e+00 2.537999999999999978e-02 1.043932000000000038e+01 1.940730000000000066e+00 3.462950000000000195e+00 1.043932000000000038e+01 8.883900000000000130e-01 1.778810000000000002e+00 1.390564000000000000e+01 -1.096289999999999987e+00 5.216380000000000017e+00 1.390564000000000000e+01 4.857750000000000234e+00 1.778810000000000002e+00 1.390564000000000000e+01 2.873079999999999856e+00 5.216380000000000017e+00 1.390564000000000000e+01 7.883840000000000181e+00 3.169000000000000289e-02 1.742693999999999832e+01 5.899149999999999672e+00 3.469269999999999854e+00 1.742693999999999832e+01 3.914470000000000116e+00 3.169000000000000289e-02 1.742693999999999832e+01 1.929789999999999894e+00 3.469269999999999854e+00 1.742693999999999832e+01
1.984699999999999909e+00 1.145850000000000035e+00 1.174061999999999983e+01 2.000000000000000164e-05 4.583420000000000272e+00 1.174061999999999983e+01 5.954069999999999752e+00 1.145850000000000035e+00 1.174061999999999983e+01 3.969390000000000196e+00 4.583420000000000272e+00 1.174061999999999983e+01 -9.188999999999999946e-02 2.344770000000000021e+00 1.611370000000000147e+01 -2.076569999999999805e+00 5.782339999999999591e+00 1.611370000000000147e+01 3.877479999999999816e+00 2.344770000000000021e+00 1.611370000000000147e+01 1.892789999999999973e+00 5.782339999999999591e+00 1.611370000000000147e+01 7.901769999999999960e+00 2.134000000000000133e-02 1.043737999999999921e+01 5.917089999999999961e+00 3.458909999999999929e+00 1.043737999999999921e+01 3.932399999999999896e+00 2.134000000000000133e-02 1.043737999999999921e+01 1.947719999999999896e+00 3.458909999999999929e+00 1.043737999999999921e+01 1.004809999999999981e+00 1.711589999999999945e+00 1.395885999999999960e+01 -9.798700000000000188e-01 5.149160000000000181e+00 1.395885999999999960e+01 4.974179999999999602e+00 1.711589999999999945e+00 1.395885999999999960e+01 2.989489999999999981e+00 5.149160000000000181e+00 1.395885999999999960e+01 7.890830000000000233e+00 2.766000000000000056e-02 1.742500000000000071e+01 5.906139999999999723e+00 3.465230000000000032e+00 1.742500000000000071e+01 3.921469999999999789e+00 2.766000000000000056e-02 1.742500000000000071e+01 1.936790000000000012e+00 3.465230000000000032e+00 1.742500000000000071e+01
1.984699999999999909e+00 1.145850000000000035e+00 1.172066000000000052e+01 2.000000000000000164e-05 4.583420000000000272e+00 1.172066000000000052e+01 5.954069999999999752e+00 1.145850000000000035e+00 1.172066000000000052e+01 3.969390000000000196e+00 4.583420000000000272e+00 1.172066000000000052e+01 -8.834000000000000186e-02 2.342719999999999914e+00 1.607852000000000103e+01 -2.073020000000000085e+00 5.780289999999999928e+00 1.607852000000000103e+01 3.881029999999999980e+00 2.342719999999999914e+00 1.607852000000000103e+01 1.896339999999999915e+00 5.780289999999999928e+00 1.607852000000000103e+01 7.913120000000000154e+00 1.478999999999999933e-02 1.042615999999999943e+01 5.928440000000000154e+00 3.452360000000000095e+00 1.042615999999999943e+01 3.943760000000000154e+00 1.478999999999999933e-02 1.042615999999999943e+01 1.959079999999999933e+00 3.452360000000000095e+00 1.042615999999999943e+01 1.234990000000000032e+00 1.578689999999999927e+00 1.405390000000000050e+01 -7.496899999999999675e-01 5.016259999999999941e+00 1.405390000000000050e+01 5.204360000000000319e+00 1.578689999999999927e+00 1.405390000000000050e+01 3.219679999999999875e+00 5.016259999999999941e+00 1.405390000000000050e+01 7.906749999999999723e+00 1.847000000000000031e-02 1.741052000000000177e+01 5.922069999999999723e+00 3.456039999999999779e+00 1.741052000000000177e+01 3.937380000000000102e+00 1.847000000000000031e-02 1.741052000000000177e+01 1.952700000000000102e+00 3.456039999999999779e+00 1.741052000000000177e+01
1.984699999999999909e+00 1.145850000000000035e+00 1.176055999999999990e+01 2.000000000000000164e-05 4.583420000000000272e+00 1.176055999999999990e+01 5.954069999999999752e+00 1.145850000000000035e+00 1.176055999999999990e+01 3.969390000000000196e+00 4.583420000000000272e+00 1.176055999999999990e+01 -9.095000000000000306e-02 2.344230000000000036e+00 1.612834000000000145e+01 -2.075639999999999930e+00 5.781799999999999606e+00 1.612834000000000145e+01 3.878410000000000135e+00 2.344230000000000036e+00 1.612834000000000145e+01 1.893729999999999913e+00 5.781799999999999606e+00 1.612834000000000145e+01 7.887889999999999624e+00 2.936000000000000068e-02 1.043947999999999965e+01 5.903200000000000003e+00 3.466930000000000067e+00 1.043947999999999965e+01 3.918520000000000003e+00 2.936000000000000068e-02 1.043947999999999965e+01 1.933840000000000003e+00 3.466930000000000067e+00 1.043947999999999965e+01 7.739000000000000323e-01 1.844910000000000050e+00 1.385083999999999982e+01 -1.210790000000000033e+00 5.282479999999999620e+00 1.385083999999999982e+01 4.743260000000000254e+00 1.844910000000000050e+00 1.385083999999999982e+01 2.758579999999999810e+00 5.282479999999999620e+00 1.385083999999999982e+01 7.878680000000000128e+00 3.466999999999999943e-02 1.742604000000000042e+01 5.894000000000000128e+00 3.472240000000000215e+00 1.742604000000000042e+01 3.909310000000000063e+00 3.466999999999999943e-02 1.742604000000000042e+01 1.924630000000000063e+00 3.472240000000000215e+00 1.742604000000000042e+01
