-7.032899867999999799e+01
-7.036402010000000473e+01
-7.088299693999999818e+01
-7.143741661999999337e+01
-7.093469435000000090e+01
-6.930785890999999310e+01
-6.977107728999999381e+01
-6.904139752000000385e+01
-6.904182165000000282e+01
-6.978709926999999880e+01
-6.930369618999999659e+01
