5.062189999999999745e-01 -2.922669999999999990e-01 7.335600000000000454e-02 5.062149999999999705e-01 -2.922649999999999970e-01 7.334499999999999353e-02 5.062130000000000241e-01 -2.922660000000000258e-01 7.334699999999999553e-02 5.062170000000000281e-01 -2.922669999999999990e-01 7.336399999999999866e-02 4.697699999999999793e-02 -2.709900000000000156e-02 2.307440000000000047e-01 4.694899999999999768e-02 -2.710299999999999862e-02 2.307299999999999907e-01 4.697300000000000086e-02 -2.711600000000000121e-02 2.306940000000000102e-01 4.695300000000000168e-02 -2.710399999999999962e-02 2.307140000000000024e-01 2.720730000000000093e-01 -1.570789999999999964e-01 -8.707700000000000162e-02 2.720759999999999845e-01 -1.570809999999999984e-01 -8.707700000000000162e-02 2.720759999999999845e-01 -1.570809999999999984e-01 -8.707700000000000162e-02 2.720730000000000093e-01 -1.570789999999999964e-01 -8.707700000000000162e-02 -8.980679999999999774e-01 5.185009999999999897e-01 -4.549210000000000198e-01 -8.980660000000000309e-01 5.184990000000000432e-01 -4.549279999999999990e-01 -8.980660000000000309e-01 5.184990000000000432e-01 -4.549270000000000258e-01 -8.980679999999999774e-01 5.184999999999999609e-01 -4.549270000000000258e-01 7.282600000000000184e-02 -4.204200000000000298e-02 2.379290000000000016e-01 7.283599999999999797e-02 -4.204999999999999710e-02 2.379290000000000016e-01 7.282800000000000384e-02 -4.205099999999999810e-02 2.379300000000000026e-01 7.276699999999999835e-02 -4.204800000000000204e-02 2.379300000000000026e-01
-4.920299999999999674e-02 2.840700000000000169e-02 -2.274140000000000050e-01 -4.920700000000000074e-02 2.840799999999999922e-02 -2.274069999999999980e-01 -4.920800000000000174e-02 2.843000000000000041e-02 -2.273719999999999908e-01 -4.921099999999999780e-02 2.843100000000000141e-02 -2.273719999999999908e-01 -5.048209999999999642e-01 2.914760000000000129e-01 -7.614300000000000235e-02 -5.048200000000000465e-01 2.914749999999999841e-01 -7.615800000000000347e-02 -5.048070000000000057e-01 2.914550000000000196e-01 -7.619099999999999484e-02 -5.048070000000000057e-01 2.914550000000000196e-01 -7.617400000000000559e-02 -7.396199999999999997e-02 4.271900000000000003e-02 -2.364410000000000123e-01 -7.396300000000000097e-02 4.271699999999999803e-02 -2.364400000000000113e-01 -7.403099999999999958e-02 4.270899999999999697e-02 -2.364390000000000103e-01 -7.403099999999999958e-02 4.270700000000000190e-02 -2.364390000000000103e-01 8.995670000000000055e-01 -5.193659999999999943e-01 4.552740000000000120e-01 8.995649999999999480e-01 -5.193649999999999656e-01 4.552740000000000120e-01 8.995659999999999767e-01 -5.193630000000000191e-01 4.552729999999999833e-01 8.995659999999999767e-01 -5.193640000000000478e-01 4.552749999999999853e-01 -2.715170000000000083e-01 1.567709999999999937e-01 8.472100000000000464e-02 -2.715139999999999776e-01 1.567689999999999917e-01 8.472100000000000464e-02 -2.715799999999999881e-01 1.567639999999999867e-01 8.472599999999999576e-02 -2.715830000000000188e-01 1.567649999999999877e-01 8.472599999999999576e-02
4.700380000000000114e-01 -2.713789999999999814e-01 1.015179999999999971e-01 4.700340000000000074e-01 -2.713749999999999774e-01 1.015240000000000031e-01 4.700340000000000074e-01 -2.713780000000000081e-01 1.015230000000000021e-01 4.700329999999999786e-01 -2.713749999999999774e-01 1.015240000000000031e-01 6.934099999999999986e-02 -4.003099999999999714e-02 1.808430000000000037e-01 6.937899999999999623e-02 -4.003199999999999814e-02 1.807870000000000033e-01 6.934300000000000186e-02 -4.005299999999999833e-02 1.808069999999999955e-01 6.937999999999999723e-02 -4.003199999999999814e-02 1.807870000000000033e-01 2.540510000000000268e-01 -1.466780000000000028e-01 -5.346999999999999670e-02 2.540540000000000020e-01 -1.466760000000000008e-01 -5.346800000000000164e-02 2.540569999999999773e-01 -1.466780000000000028e-01 -5.347099999999999770e-02 2.540540000000000020e-01 -1.466719999999999968e-01 -5.346999999999999670e-02 -8.775370000000000115e-01 5.066460000000000408e-01 -4.402079999999999882e-01 -8.775340000000000362e-01 5.066460000000000408e-01 -4.402130000000000210e-01 -8.775370000000000115e-01 5.066450000000000120e-01 -4.402119999999999922e-01 -8.775340000000000362e-01 5.066460000000000408e-01 -4.402139999999999942e-01 8.406099999999999683e-02 -4.851899999999999963e-02 2.113539999999999863e-01 8.414599999999999858e-02 -4.858799999999999925e-02 2.113530000000000131e-01 8.405999999999999583e-02 -4.852800000000000169e-02 2.113539999999999863e-01 8.407799999999999996e-02 -4.858799999999999925e-02 2.113530000000000131e-01
-7.101100000000000467e-02 4.099499999999999672e-02 -1.217670000000000002e-01 -7.101300000000000667e-02 4.099400000000000266e-02 -1.217530000000000001e-01 -7.101699999999999680e-02 4.099900000000000072e-02 -1.217369999999999980e-01 -7.101300000000000667e-02 4.099300000000000166e-02 -1.217519999999999991e-01 -3.940799999999999859e-01 2.275310000000000110e-01 -1.016520000000000062e-01 -3.941410000000000191e-01 2.275510000000000033e-01 -1.016470000000000012e-01 -3.941729999999999956e-01 2.275570000000000093e-01 -1.015849999999999947e-01 -3.941439999999999944e-01 2.275359999999999883e-01 -1.016269999999999951e-01 -8.029600000000000626e-02 4.635999999999999843e-02 -1.698079999999999867e-01 -8.029300000000000326e-02 4.635800000000000337e-02 -1.698079999999999867e-01 -8.029000000000000026e-02 4.636099999999999943e-02 -1.698099999999999887e-01 -8.029000000000000026e-02 4.636099999999999943e-02 -1.698099999999999887e-01 7.598599999999999799e-01 -4.387059999999999849e-01 3.718299999999999939e-01 7.598780000000000534e-01 -4.387190000000000256e-01 3.718190000000000106e-01 7.599059999999999704e-01 -4.387289999999999801e-01 3.717909999999999826e-01 7.598789999999999711e-01 -4.387130000000000196e-01 3.718139999999999779e-01 -2.144310000000000105e-01 1.238149999999999945e-01 2.137400000000000064e-02 -2.144550000000000067e-01 1.238309999999999966e-01 2.139399999999999982e-02 -2.144330000000000125e-01 1.238179999999999975e-01 2.137500000000000164e-02 -2.144419999999999937e-01 1.238070000000000004e-01 2.135899999999999951e-02
-7.046299999999999786e-02 4.070100000000000107e-02 -1.745780000000000109e-01 -7.046099999999999586e-02 4.069699999999999707e-02 -1.745849999999999902e-01 -7.046199999999999686e-02 4.070200000000000207e-02 -1.745669999999999999e-01 -7.045899999999999386e-02 4.069899999999999907e-02 -1.745809999999999862e-01 -4.645380000000000065e-01 2.681930000000000147e-01 -1.029749999999999971e-01 -4.644309999999999827e-01 2.681649999999999867e-01 -1.030549999999999938e-01 -4.645259999999999945e-01 2.681549999999999767e-01 -1.030009999999999953e-01 -4.645039999999999725e-01 2.681620000000000115e-01 -1.030480000000000007e-01 -8.444899999999999629e-02 4.873500000000000054e-02 -2.079880000000000062e-01 -8.445099999999999829e-02 4.873500000000000054e-02 -2.079940000000000122e-01 -8.444999999999999729e-02 4.873700000000000254e-02 -2.079900000000000082e-01 -8.444599999999999329e-02 4.873399999999999954e-02 -2.079900000000000082e-01 8.709780000000000300e-01 -5.028639999999999777e-01 4.355260000000000242e-01 8.709430000000000227e-01 -5.028310000000000279e-01 4.355760000000000187e-01 8.709810000000000052e-01 -5.028650000000000064e-01 4.355189999999999895e-01 8.709519999999999484e-01 -5.028380000000000072e-01 4.355580000000000007e-01 -2.515510000000000246e-01 1.452890000000000015e-01 5.006300000000000333e-02 -2.514970000000000261e-01 1.452180000000000137e-01 5.003599999999999715e-02 -2.516050000000000231e-01 1.452620000000000022e-01 5.003300000000000108e-02 -2.515620000000000078e-01 1.452140000000000097e-01 5.004200000000000315e-02
1.080659999999999954e-01 -6.239499999999999907e-02 -3.130399999999999849e-01 1.080440000000000011e-01 -6.240199999999999914e-02 -3.130080000000000084e-01 1.080590000000000023e-01 -6.237100000000000283e-02 -3.130060000000000064e-01 1.080369999999999941e-01 -6.237800000000000289e-02 -3.129739999999999744e-01 -4.523690000000000211e-01 2.611780000000000213e-01 1.159069999999999961e-01 -4.523670000000000191e-01 2.611740000000000173e-01 1.158870000000000039e-01 -4.523650000000000171e-01 2.611789999999999945e-01 1.158870000000000039e-01 -4.523659999999999903e-01 2.611760000000000193e-01 1.158850000000000019e-01 2.220899999999999958e-02 -1.277400000000000063e-02 -2.578869999999999774e-01 2.223500000000000129e-02 -1.283499999999999919e-02 -2.578889999999999794e-01 2.214299999999999949e-02 -1.278199999999999996e-02 -2.578849999999999754e-01 2.216800000000000020e-02 -1.284300000000000025e-02 -2.578880000000000061e-01 5.533390000000000253e-01 -3.194710000000000050e-01 2.883839999999999737e-01 5.533400000000000540e-01 -3.194699999999999762e-01 2.883870000000000045e-01 5.533400000000000540e-01 -3.194719999999999782e-01 2.883870000000000045e-01 5.533409999999999718e-01 -3.194710000000000050e-01 2.883910000000000085e-01 -2.312130000000000019e-01 1.334889999999999965e-01 1.666159999999999863e-01 -2.312140000000000029e-01 1.334889999999999965e-01 1.666169999999999873e-01 -2.312130000000000019e-01 1.334889999999999965e-01 1.666150000000000131e-01 -2.312130000000000019e-01 1.334889999999999965e-01 1.666159999999999863e-01
5.017599999999999838e-01 -2.896949999999999803e-01 1.378599999999999964e-02 5.017629999999999590e-01 -2.896969999999999823e-01 1.377300000000000052e-02 5.017709999999999670e-01 -2.897060000000000191e-01 1.375600000000000087e-02 5.017690000000000206e-01 -2.897049999999999903e-01 1.375999999999999966e-02 -3.859000000000000017e-03 2.227999999999999946e-03 2.696120000000000183e-01 -3.789999999999999966e-03 2.230000000000000211e-03 2.696149999999999936e-01 -3.853000000000000088e-03 2.224999999999999981e-03 2.695890000000000231e-01 -3.787000000000000002e-03 2.206000000000000062e-03 2.695509999999999851e-01 2.691009999999999791e-01 -1.553620000000000001e-01 -1.240379999999999955e-01 2.691020000000000079e-01 -1.553630000000000011e-01 -1.240379999999999955e-01 2.691000000000000059e-01 -1.553650000000000031e-01 -1.240379999999999955e-01 2.691000000000000059e-01 -1.553660000000000041e-01 -1.240389999999999965e-01 -8.080600000000000005e-01 4.665420000000000122e-01 -4.110530000000000017e-01 -8.080600000000000005e-01 4.665469999999999895e-01 -4.110320000000000085e-01 -8.080829999999999957e-01 4.665500000000000203e-01 -4.110010000000000052e-01 -8.080859999999999710e-01 4.665569999999999995e-01 -4.109760000000000080e-01 4.102800000000000197e-02 -2.370600000000000138e-02 2.516950000000000021e-01 4.106100000000000028e-02 -2.370399999999999938e-02 2.516920000000000268e-01 4.096199999999999841e-02 -2.370500000000000038e-02 2.516939999999999733e-01 4.106200000000000128e-02 -2.371200000000000044e-02 2.516920000000000268e-01
3.635860000000000203e-01 -2.099239999999999995e-01 -2.468690000000000051e-01 3.635840000000000183e-01 -2.099250000000000005e-01 -2.468519999999999881e-01 3.635820000000000163e-01 -2.099169999999999925e-01 -2.468370000000000009e-01 3.635869999999999935e-01 -2.099280000000000035e-01 -2.468519999999999881e-01 -2.434959999999999902e-01 1.405800000000000105e-01 3.149000000000000132e-01 -2.434989999999999932e-01 1.405810000000000115e-01 3.148969999999999825e-01 -2.434979999999999922e-01 1.405859999999999888e-01 3.149219999999999797e-01 -2.434959999999999902e-01 1.405770000000000075e-01 3.148989999999999845e-01 1.684470000000000134e-01 -9.725000000000000311e-02 -2.131740000000000024e-01 1.684460000000000124e-01 -9.725100000000000411e-02 -2.131699999999999984e-01 1.684470000000000134e-01 -9.724800000000000111e-02 -2.131709999999999994e-01 1.684450000000000114e-01 -9.725000000000000311e-02 -2.131730000000000014e-01 -1.909520000000000106e-01 1.102569999999999939e-01 -1.017379999999999951e-01 -1.909500000000000086e-01 1.102520000000000028e-01 -1.017399999999999971e-01 -1.909409999999999996e-01 1.102429999999999938e-01 -1.017969999999999986e-01 -1.909510000000000096e-01 1.102619999999999989e-01 -1.017340000000000050e-01 -9.758799999999999419e-02 5.633900000000000019e-02 2.468720000000000081e-01 -9.758600000000000607e-02 5.633900000000000019e-02 2.468730000000000091e-01 -9.758500000000000507e-02 5.633900000000000019e-02 2.468730000000000091e-01 -9.758400000000000407e-02 5.633900000000000019e-02 2.468710000000000071e-01
2.431329999999999880e-01 -1.403770000000000018e-01 -3.154620000000000202e-01 2.431270000000000098e-01 -1.403719999999999968e-01 -3.154379999999999962e-01 2.431290000000000118e-01 -1.403790000000000038e-01 -3.154620000000000202e-01 2.431300000000000128e-01 -1.403729999999999978e-01 -3.154359999999999942e-01 -3.640660000000000007e-01 2.102130000000000110e-01 2.466839999999999866e-01 -3.640650000000000275e-01 2.102140000000000120e-01 2.466849999999999876e-01 -3.640550000000000175e-01 2.101860000000000117e-01 2.466359999999999941e-01 -3.640559999999999907e-01 2.101919999999999900e-01 2.466490000000000071e-01 9.738800000000000234e-02 -5.622300000000000214e-02 -2.467969999999999886e-01 9.738800000000000234e-02 -5.622300000000000214e-02 -2.467979999999999896e-01 9.738600000000000034e-02 -5.622400000000000314e-02 -2.467989999999999906e-01 9.738900000000000334e-02 -5.622499999999999720e-02 -2.467979999999999896e-01 1.921660000000000035e-01 -1.109460000000000029e-01 1.026050000000000018e-01 1.921599999999999975e-01 -1.109379999999999949e-01 1.026139999999999969e-01 1.921499999999999875e-01 -1.109279999999999988e-01 1.026719999999999994e-01 1.921609999999999985e-01 -1.109480000000000049e-01 1.026070000000000038e-01 -1.685810000000000086e-01 9.733999999999999597e-02 2.129580000000000084e-01 -1.685860000000000136e-01 9.733999999999999597e-02 2.129590000000000094e-01 -1.686489999999999934e-01 9.733600000000000585e-02 2.129610000000000114e-01 -1.686469999999999914e-01 9.733400000000000385e-02 2.129630000000000134e-01
1.557999999999999923e-03 -9.020000000000000240e-04 -2.684159999999999879e-01 1.577000000000000060e-03 -8.909999999999999734e-04 -2.683940000000000214e-01 1.557000000000000007e-03 -8.800000000000000313e-04 -2.683789999999999787e-01 1.588000000000000002e-03 -8.970000000000000109e-04 -2.684070000000000067e-01 -5.024830000000000130e-01 2.901099999999999790e-01 -1.637999999999999873e-02 -5.024870000000000170e-01 2.901130000000000098e-01 -1.637299999999999867e-02 -5.024809999999999555e-01 2.901099999999999790e-01 -1.638500000000000026e-02 -5.024819999999999842e-01 2.901119999999999810e-01 -1.638900000000000079e-02 -4.237799999999999900e-02 2.447600000000000123e-02 -2.512969999999999926e-01 -4.243600000000000150e-02 2.448200000000000029e-02 -2.512929999999999886e-01 -4.244099999999999956e-02 2.447600000000000123e-02 -2.512949999999999906e-01 -4.243500000000000050e-02 2.447500000000000023e-02 -2.512949999999999906e-01 8.129680000000000240e-01 -4.693669999999999787e-01 4.134959999999999747e-01 8.129739999999999744e-01 -4.693700000000000094e-01 4.134809999999999874e-01 8.129690000000000527e-01 -4.693680000000000074e-01 4.134860000000000202e-01 8.129709999999999992e-01 -4.693680000000000074e-01 4.134920000000000262e-01 -2.696359999999999868e-01 1.556740000000000068e-01 1.225870000000000015e-01 -2.696350000000000136e-01 1.556710000000000038e-01 1.225880000000000025e-01 -2.696339999999999848e-01 1.556730000000000058e-01 1.225880000000000025e-01 -2.696350000000000136e-01 1.556710000000000038e-01 1.225860000000000005e-01
4.514679999999999804e-01 -2.606649999999999801e-01 -1.169079999999999980e-01 4.514610000000000012e-01 -2.606600000000000028e-01 -1.168990000000000029e-01 4.514650000000000052e-01 -2.606609999999999761e-01 -1.169020000000000059e-01 4.514670000000000072e-01 -2.606609999999999761e-01 -1.169010000000000049e-01 -1.094669999999999949e-01 6.318799999999999417e-02 3.131099999999999994e-01 -1.094060000000000032e-01 6.317200000000000593e-02 3.130879999999999774e-01 -1.094659999999999939e-01 6.317000000000000393e-02 3.131160000000000054e-01 -1.094809999999999950e-01 6.317899999999999905e-02 3.131160000000000054e-01 2.306590000000000029e-01 -1.331690000000000096e-01 -1.674670000000000047e-01 2.306590000000000029e-01 -1.331690000000000096e-01 -1.674690000000000067e-01 2.306600000000000039e-01 -1.331690000000000096e-01 -1.674670000000000047e-01 2.306600000000000039e-01 -1.331680000000000086e-01 -1.674670000000000047e-01 -5.497079999999999744e-01 3.173790000000000222e-01 -2.868189999999999906e-01 -5.497090000000000032e-01 3.173869999999999747e-01 -2.868020000000000014e-01 -5.497069999999999457e-01 3.173799999999999955e-01 -2.868240000000000234e-01 -5.497039999999999704e-01 3.173790000000000222e-01 -2.868200000000000194e-01 -2.297499999999999890e-02 1.328400000000000067e-02 2.580979999999999941e-01 -2.295300000000000118e-02 1.327200000000000081e-02 2.580770000000000008e-01 -2.297099999999999836e-02 1.326100000000000022e-02 2.580609999999999848e-01 -2.295099999999999918e-02 1.327099999999999981e-02 2.580779999999999741e-01
