7.744497444000000286e+00 0.000000000000000000e+00 0.000000000000000000e+00 -3.992771744000000123e+00 6.915684012999999908e+00 0.000000000000000000e+00 0.000000000000000000e+00 0.000000000000000000e+00 2.000000000000000000e+01
7.714571280000000364e+00 0.000000000000000000e+00 0.000000000000000000e+00 4.164522140999999955e+00 1.172365366800000075e+01 0.000000000000000000e+00 0.000000000000000000e+00 0.000000000000000000e+00 2.000000000000000000e+01
7.174549096999999875e+00 0.000000000000000000e+00 0.000000000000000000e+00 3.554938878000000191e+00 1.000760010299999969e+01 0.000000000000000000e+00 0.000000000000000000e+00 0.000000000000000000e+00 2.000000000000000000e+01
7.523401198000000178e+00 0.000000000000000000e+00 0.000000000000000000e+00 3.140171726999999802e+00 8.440140490999999301e+00 0.000000000000000000e+00 0.000000000000000000e+00 0.000000000000000000e+00 2.000000000000000000e+01
8.391715616999999128e+00 0.000000000000000000e+00 0.000000000000000000e+00 -4.102261325999999819e+00 7.105325546000000436e+00 0.000000000000000000e+00 0.000000000000000000e+00 0.000000000000000000e+00 2.000000000000000000e+01
7.669909093000000233e+00 0.000000000000000000e+00 0.000000000000000000e+00 4.048131169000000362e+00 1.139599843999999962e+01 0.000000000000000000e+00 0.000000000000000000e+00 0.000000000000000000e+00 2.000000000000000000e+01
8.717713693000000319e+00 0.000000000000000000e+00 0.000000000000000000e+00 -3.892418131999999975e+00 6.741866446000000401e+00 0.000000000000000000e+00 0.000000000000000000e+00 0.000000000000000000e+00 2.000000000000000000e+01
7.937855825999999837e+00 0.000000000000000000e+00 0.000000000000000000e+00 2.820685984999999896e+00 7.495966252999999746e+00 0.000000000000000000e+00 0.000000000000000000e+00 0.000000000000000000e+00 2.000000000000000000e+01
8.023584817999999785e+00 0.000000000000000000e+00 0.000000000000000000e+00 -4.027355545999999897e+00 6.975584918000000023e+00 0.000000000000000000e+00 0.000000000000000000e+00 0.000000000000000000e+00 2.000000000000000000e+01
8.077008178999999899e+00 0.000000000000000000e+00 0.000000000000000000e+00 -4.021305598999999731e+00 6.965106102000000021e+00 0.000000000000000000e+00 0.000000000000000000e+00 0.000000000000000000e+00 2.000000000000000000e+01
8.152734604000000829e+00 0.000000000000000000e+00 0.000000000000000000e+00 -3.792110533999999866e+00 6.568128577999999607e+00 0.000000000000000000e+00 0.000000000000000000e+00 0.000000000000000000e+00 2.000000000000000000e+01
8.909673770999999576e+00 0.000000000000000000e+00 0.000000000000000000e+00 -4.444302468000000061e+00 7.697758223000000122e+00 0.000000000000000000e+00 0.000000000000000000e+00 0.000000000000000000e+00 2.000000000000000000e+01
7.708412116999999952e+00 0.000000000000000000e+00 0.000000000000000000e+00 4.329263772000000010e+00 1.218742208099999935e+01 0.000000000000000000e+00 0.000000000000000000e+00 0.000000000000000000e+00 2.000000000000000000e+01
8.668335090999999437e+00 0.000000000000000000e+00 0.000000000000000000e+00 -3.609800481000000172e+00 6.252358281000000240e+00 0.000000000000000000e+00 0.000000000000000000e+00 0.000000000000000000e+00 2.000000000000000000e+01
7.642934916999999828e+00 0.000000000000000000e+00 0.000000000000000000e+00 3.742457787000000202e+00 1.053548941999999933e+01 0.000000000000000000e+00 0.000000000000000000e+00 0.000000000000000000e+00 2.000000000000000000e+01
7.581884382000000144e+00 0.000000000000000000e+00 0.000000000000000000e+00 3.123892026000000044e+00 8.396383975999999194e+00 0.000000000000000000e+00 0.000000000000000000e+00 0.000000000000000000e+00 2.000000000000000000e+01
8.385195145000000849e+00 0.000000000000000000e+00 0.000000000000000000e+00 2.259481926999999946e+00 6.419810325000000262e+00 0.000000000000000000e+00 0.000000000000000000e+00 0.000000000000000000e+00 2.000000000000000000e+01
1.031351311499999923e+01 0.000000000000000000e+00 0.000000000000000000e+00 -3.803636931000000221e+00 6.588092883999999927e+00 0.000000000000000000e+00 0.000000000000000000e+00 0.000000000000000000e+00 2.000000000000000000e+01
7.428629371000000425e+00 0.000000000000000000e+00 0.000000000000000000e+00 3.540121762000000061e+00 9.515124527999999415e+00 0.000000000000000000e+00 0.000000000000000000e+00 0.000000000000000000e+00 2.000000000000000000e+01
8.749128747000000317e+00 0.000000000000000000e+00 0.000000000000000000e+00 -4.068597903999999765e+00 7.047018783000000397e+00 0.000000000000000000e+00 0.000000000000000000e+00 0.000000000000000000e+00 2.000000000000000000e+01
8.426696069000000122e+00 0.000000000000000000e+00 0.000000000000000000e+00 -4.042643552000000362e+00 7.002064523999999679e+00 0.000000000000000000e+00 0.000000000000000000e+00 0.000000000000000000e+00 2.000000000000000000e+01
7.400033246999999648e+00 0.000000000000000000e+00 0.000000000000000000e+00 2.845312486000000085e+00 7.647619049000000224e+00 0.000000000000000000e+00 0.000000000000000000e+00 0.000000000000000000e+00 2.000000000000000000e+01
7.754382399999999897e+00 0.000000000000000000e+00 0.000000000000000000e+00 2.561139761999999820e+00 6.913657863000000070e+00 0.000000000000000000e+00 0.000000000000000000e+00 0.000000000000000000e+00 2.000000000000000000e+01
8.080164785999999211e+00 0.000000000000000000e+00 0.000000000000000000e+00 2.822429666000000115e+00 7.369950327999999828e+00 0.000000000000000000e+00 0.000000000000000000e+00 0.000000000000000000e+00 2.000000000000000000e+01
8.397009274000000190e+00 0.000000000000000000e+00 0.000000000000000000e+00 -4.325908717999999986e+00 7.492694217999999573e+00 0.000000000000000000e+00 0.000000000000000000e+00 0.000000000000000000e+00 2.000000000000000000e+01
8.113207395999999960e+00 0.000000000000000000e+00 0.000000000000000000e+00 2.430734425999999893e+00 6.561635732000000054e+00 0.000000000000000000e+00 0.000000000000000000e+00 0.000000000000000000e+00 2.000000000000000000e+01
7.606144662000000167e+00 0.000000000000000000e+00 0.000000000000000000e+00 3.988610523999999824e+00 1.122844033800000041e+01 0.000000000000000000e+00 0.000000000000000000e+00 0.000000000000000000e+00 2.000000000000000000e+01
7.476407792999999913e+00 0.000000000000000000e+00 0.000000000000000000e+00 3.226798624000000171e+00 9.083844014000000300e+00 0.000000000000000000e+00 0.000000000000000000e+00 0.000000000000000000e+00 2.000000000000000000e+01
8.609562763999999646e+00 0.000000000000000000e+00 0.000000000000000000e+00 -3.959731259999999864e+00 6.858456212000000107e+00 0.000000000000000000e+00 0.000000000000000000e+00 0.000000000000000000e+00 2.000000000000000000e+01
7.433038698999999916e+00 0.000000000000000000e+00 0.000000000000000000e+00 4.265740148999999981e+00 1.200859509000000003e+01 0.000000000000000000e+00 0.000000000000000000e+00 0.000000000000000000e+00 2.000000000000000000e+01
7.371170599000000045e+00 0.000000000000000000e+00 0.000000000000000000e+00 2.735672174999999928e+00 7.352928279000000344e+00 0.000000000000000000e+00 0.000000000000000000e+00 0.000000000000000000e+00 2.000000000000000000e+01
8.329155323000000166e+00 0.000000000000000000e+00 0.000000000000000000e+00 -4.074354375000000417e+00 7.056989285000000223e+00 0.000000000000000000e+00 0.000000000000000000e+00 0.000000000000000000e+00 2.000000000000000000e+01
8.645993903999999119e+00 0.000000000000000000e+00 0.000000000000000000e+00 -4.032123281999999698e+00 6.983842881000000169e+00 0.000000000000000000e+00 0.000000000000000000e+00 0.000000000000000000e+00 2.000000000000000000e+01
9.039918451000000132e+00 0.000000000000000000e+00 0.000000000000000000e+00 -4.060618085999999849e+00 7.033197332000000301e+00 0.000000000000000000e+00 0.000000000000000000e+00 0.000000000000000000e+00 2.000000000000000000e+01
7.399698568999999893e+00 0.000000000000000000e+00 0.000000000000000000e+00 2.575752710999999806e+00 6.923097410999999646e+00 0.000000000000000000e+00 0.000000000000000000e+00 0.000000000000000000e+00 2.000000000000000000e+01
8.321430896000000743e+00 0.000000000000000000e+00 0.000000000000000000e+00 -4.006528397000000297e+00 6.939511236000000416e+00 0.000000000000000000e+00 0.000000000000000000e+00 0.000000000000000000e+00 2.000000000000000000e+01
8.868077159000000265e+00 0.000000000000000000e+00 0.000000000000000000e+00 -3.849977788999999984e+00 6.668357610000000157e+00 0.000000000000000000e+00 0.000000000000000000e+00 0.000000000000000000e+00 2.000000000000000000e+01
7.714033120999999937e+00 0.000000000000000000e+00 0.000000000000000000e+00 -3.897179530999999919e+00 6.750113432000000024e+00 0.000000000000000000e+00 0.000000000000000000e+00 0.000000000000000000e+00 2.000000000000000000e+01
7.323268639000000135e+00 0.000000000000000000e+00 0.000000000000000000e+00 -2.975011546000000173e+00 1.313953848899999954e+01 0.000000000000000000e+00 0.000000000000000000e+00 0.000000000000000000e+00 2.000000000000000000e+01
7.351517129000000317e+00 0.000000000000000000e+00 0.000000000000000000e+00 2.348177521999999851e+00 6.311421765000000406e+00 0.000000000000000000e+00 0.000000000000000000e+00 0.000000000000000000e+00 2.000000000000000000e+01
7.652136491000000262e+00 0.000000000000000000e+00 0.000000000000000000e+00 3.073691156000000202e+00 8.652827231999999924e+00 0.000000000000000000e+00 0.000000000000000000e+00 0.000000000000000000e+00 2.000000000000000000e+01
7.586456758999999828e+00 0.000000000000000000e+00 0.000000000000000000e+00 2.717098279000000005e+00 7.295808980000000332e+00 0.000000000000000000e+00 0.000000000000000000e+00 0.000000000000000000e+00 2.000000000000000000e+01
7.277008054000000392e+00 0.000000000000000000e+00 0.000000000000000000e+00 2.788995719999999956e+00 7.496251080999999594e+00 0.000000000000000000e+00 0.000000000000000000e+00 0.000000000000000000e+00 2.000000000000000000e+01
7.664790011000000014e+00 0.000000000000000000e+00 0.000000000000000000e+00 2.749891486000000107e+00 7.383863567999999766e+00 0.000000000000000000e+00 0.000000000000000000e+00 0.000000000000000000e+00 2.000000000000000000e+01
7.710872118000000164e+00 0.000000000000000000e+00 0.000000000000000000e+00 2.839995344000000088e+00 7.647139216000000239e+00 0.000000000000000000e+00 0.000000000000000000e+00 0.000000000000000000e+00 2.000000000000000000e+01
8.793403904999999909e+00 0.000000000000000000e+00 0.000000000000000000e+00 -3.954564936000000142e+00 6.849507874999999579e+00 0.000000000000000000e+00 0.000000000000000000e+00 0.000000000000000000e+00 2.000000000000000000e+01
7.323133418000000283e+00 0.000000000000000000e+00 0.000000000000000000e+00 -4.304645832000000283e+00 7.455865817000000284e+00 0.000000000000000000e+00 0.000000000000000000e+00 0.000000000000000000e+00 2.000000000000000000e+01
8.405492969999999175e+00 0.000000000000000000e+00 0.000000000000000000e+00 -3.965432201000000045e+00 6.868330530999999795e+00 0.000000000000000000e+00 0.000000000000000000e+00 0.000000000000000000e+00 2.000000000000000000e+01
7.758059048999999874e+00 0.000000000000000000e+00 0.000000000000000000e+00 3.861143381000000208e+00 1.086960429600000033e+01 0.000000000000000000e+00 0.000000000000000000e+00 0.000000000000000000e+00 2.000000000000000000e+01
7.084888227000000427e+00 0.000000000000000000e+00 0.000000000000000000e+00 2.410185757999999900e+00 6.506165717000000015e+00 0.000000000000000000e+00 0.000000000000000000e+00 0.000000000000000000e+00 2.000000000000000000e+01
9.073669467000000211e+00 0.000000000000000000e+00 0.000000000000000000e+00 -4.029303312999999775e+00 6.978958550999999844e+00 0.000000000000000000e+00 0.000000000000000000e+00 0.000000000000000000e+00 2.000000000000000000e+01
8.341263087999999826e+00 0.000000000000000000e+00 0.000000000000000000e+00 -4.133143314999999873e+00 7.158814721999999797e+00 0.000000000000000000e+00 0.000000000000000000e+00 0.000000000000000000e+00 2.000000000000000000e+01
7.352238032999999895e+00 0.000000000000000000e+00 0.000000000000000000e+00 2.726567961000000206e+00 7.328458010000000300e+00 0.000000000000000000e+00 0.000000000000000000e+00 0.000000000000000000e+00 2.000000000000000000e+01
6.652868014000000052e+00 0.000000000000000000e+00 0.000000000000000000e+00 3.330021711000000106e+00 9.374429987999999270e+00 0.000000000000000000e+00 0.000000000000000000e+00 0.000000000000000000e+00 2.000000000000000000e+01
8.051990025000000273e+00 0.000000000000000000e+00 0.000000000000000000e+00 3.767244489999999946e+00 1.060526710799999961e+01 0.000000000000000000e+00 0.000000000000000000e+00 0.000000000000000000e+00 2.000000000000000000e+01
7.632891475000000092e+00 0.000000000000000000e+00 0.000000000000000000e+00 3.706580494999999864e+00 1.043449033099999923e+01 0.000000000000000000e+00 0.000000000000000000e+00 0.000000000000000000e+00 2.000000000000000000e+01
8.130002278999999277e+00 0.000000000000000000e+00 0.000000000000000000e+00 -3.878408122000000180e+00 6.717600393999999753e+00 0.000000000000000000e+00 0.000000000000000000e+00 0.000000000000000000e+00 2.000000000000000000e+01
8.359899730000000417e+00 0.000000000000000000e+00 0.000000000000000000e+00 -4.306419138999999952e+00 7.458937275000000255e+00 0.000000000000000000e+00 0.000000000000000000e+00 0.000000000000000000e+00 2.000000000000000000e+01
7.219779318999999695e+00 0.000000000000000000e+00 0.000000000000000000e+00 2.721848939000000023e+00 7.347483568000000353e+00 0.000000000000000000e+00 0.000000000000000000e+00 0.000000000000000000e+00 2.000000000000000000e+01
8.599157360999999611e+00 0.000000000000000000e+00 0.000000000000000000e+00 -3.957686004999999785e+00 6.854913725000000291e+00 0.000000000000000000e+00 0.000000000000000000e+00 0.000000000000000000e+00 2.000000000000000000e+01
8.493103269000000566e+00 0.000000000000000000e+00 0.000000000000000000e+00 -4.089262512000000349e+00 7.082810936999999640e+00 0.000000000000000000e+00 0.000000000000000000e+00 0.000000000000000000e+00 2.000000000000000000e+01
7.685271848000000183e+00 0.000000000000000000e+00 0.000000000000000000e+00 2.304382600999999919e+00 6.220555834999999867e+00 0.000000000000000000e+00 0.000000000000000000e+00 0.000000000000000000e+00 2.000000000000000000e+01
7.073682321999999800e+00 0.000000000000000000e+00 0.000000000000000000e+00 2.495539734999999926e+00 6.707501306000000163e+00 0.000000000000000000e+00 0.000000000000000000e+00 0.000000000000000000e+00 2.000000000000000000e+01
8.241789952999999613e+00 0.000000000000000000e+00 0.000000000000000000e+00 2.656645566999999986e+00 7.171470602000000305e+00 0.000000000000000000e+00 0.000000000000000000e+00 0.000000000000000000e+00 2.000000000000000000e+01
8.327946172000000757e+00 0.000000000000000000e+00 0.000000000000000000e+00 -4.010097028999999758e+00 6.945692289000000130e+00 0.000000000000000000e+00 0.000000000000000000e+00 0.000000000000000000e+00 2.000000000000000000e+01
7.939846205000000268e+00 0.000000000000000000e+00 0.000000000000000000e+00 -3.822777857999999807e+00 6.621245943999999994e+00 0.000000000000000000e+00 0.000000000000000000e+00 0.000000000000000000e+00 2.000000000000000000e+01
8.416013699000000514e+00 0.000000000000000000e+00 0.000000000000000000e+00 2.705146378999999879e+00 7.488399668999999648e+00 0.000000000000000000e+00 0.000000000000000000e+00 0.000000000000000000e+00 2.000000000000000000e+01
8.223532634999999757e+00 0.000000000000000000e+00 0.000000000000000000e+00 -4.052293230000000079e+00 7.018778258000000214e+00 0.000000000000000000e+00 0.000000000000000000e+00 0.000000000000000000e+00 2.000000000000000000e+01
7.819638266000000115e+00 0.000000000000000000e+00 0.000000000000000000e+00 -4.346949579000000341e+00 7.529138061000000270e+00 0.000000000000000000e+00 0.000000000000000000e+00 0.000000000000000000e+00 2.000000000000000000e+01
7.910706515000000216e+00 0.000000000000000000e+00 0.000000000000000000e+00 3.074504684999999959e+00 8.655117417999999674e+00 0.000000000000000000e+00 0.000000000000000000e+00 0.000000000000000000e+00 2.000000000000000000e+01
7.576231493999999955e+00 0.000000000000000000e+00 0.000000000000000000e+00 2.666099609999999842e+00 7.196991277999999603e+00 0.000000000000000000e+00 0.000000000000000000e+00 0.000000000000000000e+00 2.000000000000000000e+01
7.372732635000000201e+00 0.000000000000000000e+00 0.000000000000000000e+00 -4.081661571999999794e+00 7.069645721999999743e+00 0.000000000000000000e+00 0.000000000000000000e+00 0.000000000000000000e+00 2.000000000000000000e+01
8.232469679999999457e+00 0.000000000000000000e+00 0.000000000000000000e+00 -4.023555467999999635e+00 6.969002989999999897e+00 0.000000000000000000e+00 0.000000000000000000e+00 0.000000000000000000e+00 2.000000000000000000e+01
7.888091916999999675e+00 0.000000000000000000e+00 0.000000000000000000e+00 3.165037883000000107e+00 8.909979759000000499e+00 0.000000000000000000e+00 0.000000000000000000e+00 0.000000000000000000e+00 2.000000000000000000e+01
7.244402213999999951e+00 0.000000000000000000e+00 0.000000000000000000e+00 -2.929767351999999825e+00 1.293971142500000049e+01 0.000000000000000000e+00 0.000000000000000000e+00 0.000000000000000000e+00 2.000000000000000000e+01
7.596874092000000189e+00 0.000000000000000000e+00 0.000000000000000000e+00 -4.140963672999999901e+00 7.172359981999999690e+00 0.000000000000000000e+00 0.000000000000000000e+00 0.000000000000000000e+00 2.000000000000000000e+01
1.046795859600000078e+01 0.000000000000000000e+00 0.000000000000000000e+00 -3.785790248000000080e+00 6.557181520000000319e+00 0.000000000000000000e+00 0.000000000000000000e+00 0.000000000000000000e+00 2.000000000000000000e+01
8.085936622000000185e+00 0.000000000000000000e+00 0.000000000000000000e+00 -4.021267876999999658e+00 6.965040765000000356e+00 0.000000000000000000e+00 0.000000000000000000e+00 0.000000000000000000e+00 2.000000000000000000e+01
7.474548862999999876e+00 0.000000000000000000e+00 0.000000000000000000e+00 2.444470396999999906e+00 6.570237352999999558e+00 0.000000000000000000e+00 0.000000000000000000e+00 0.000000000000000000e+00 2.000000000000000000e+01
7.853242095999999783e+00 0.000000000000000000e+00 0.000000000000000000e+00 -2.896263138000000126e+00 1.279173555899999926e+01 0.000000000000000000e+00 0.000000000000000000e+00 0.000000000000000000e+00 2.000000000000000000e+01
7.724354604000000180e+00 0.000000000000000000e+00 0.000000000000000000e+00 -4.211451216000000386e+00 7.294447994999999629e+00 0.000000000000000000e+00 0.000000000000000000e+00 0.000000000000000000e+00 2.000000000000000000e+01
7.821223060000000338e+00 0.000000000000000000e+00 0.000000000000000000e+00 -4.349378156000000217e+00 7.533344480000000232e+00 0.000000000000000000e+00 0.000000000000000000e+00 0.000000000000000000e+00 2.000000000000000000e+01
8.266987198000000703e+00 0.000000000000000000e+00 0.000000000000000000e+00 -4.037085903999999559e+00 6.992438394999999751e+00 0.000000000000000000e+00 0.000000000000000000e+00 0.000000000000000000e+00 2.000000000000000000e+01
7.037485930999999972e+00 0.000000000000000000e+00 0.000000000000000000e+00 2.877419756000000106e+00 7.733916837999999849e+00 0.000000000000000000e+00 0.000000000000000000e+00 0.000000000000000000e+00 2.000000000000000000e+01
8.223044171999999818e+00 0.000000000000000000e+00 0.000000000000000000e+00 3.658189010000000074e+00 1.029826221299999922e+01 0.000000000000000000e+00 0.000000000000000000e+00 0.000000000000000000e+00 2.000000000000000000e+01
7.110698711999999588e+00 0.000000000000000000e+00 0.000000000000000000e+00 2.268849728999999815e+00 6.098204852000000287e+00 0.000000000000000000e+00 0.000000000000000000e+00 0.000000000000000000e+00 2.000000000000000000e+01
7.610273208999999817e+00 0.000000000000000000e+00 0.000000000000000000e+00 3.382772483000000108e+00 9.522930046999999121e+00 0.000000000000000000e+00 0.000000000000000000e+00 0.000000000000000000e+00 2.000000000000000000e+01
7.891469076999999999e+00 0.000000000000000000e+00 0.000000000000000000e+00 3.278008103999999978e+00 8.801934456999999767e+00 0.000000000000000000e+00 0.000000000000000000e+00 0.000000000000000000e+00 2.000000000000000000e+01
7.791344010000000431e+00 0.000000000000000000e+00 0.000000000000000000e+00 3.835861706999999843e+00 1.079843320400000017e+01 0.000000000000000000e+00 0.000000000000000000e+00 0.000000000000000000e+00 2.000000000000000000e+01
7.214595703999999721e+00 0.000000000000000000e+00 0.000000000000000000e+00 2.547773085000000215e+00 6.847893885999999597e+00 0.000000000000000000e+00 0.000000000000000000e+00 0.000000000000000000e+00 2.000000000000000000e+01
7.879508250999999852e+00 0.000000000000000000e+00 0.000000000000000000e+00 2.294245001999999811e+00 6.193189934000000285e+00 0.000000000000000000e+00 0.000000000000000000e+00 0.000000000000000000e+00 2.000000000000000000e+01
8.899187801000000064e+00 0.000000000000000000e+00 0.000000000000000000e+00 -3.788325509999999952e+00 6.561572722000000191e+00 0.000000000000000000e+00 0.000000000000000000e+00 0.000000000000000000e+00 2.000000000000000000e+01
7.792600683999999944e+00 0.000000000000000000e+00 0.000000000000000000e+00 2.975641781999999846e+00 7.770018999000000370e+00 0.000000000000000000e+00 0.000000000000000000e+00 0.000000000000000000e+00 2.000000000000000000e+01
7.781206307999999794e+00 0.000000000000000000e+00 0.000000000000000000e+00 3.459765244999999823e+00 9.299142616999999333e+00 0.000000000000000000e+00 0.000000000000000000e+00 0.000000000000000000e+00 2.000000000000000000e+01
8.328192918999999250e+00 0.000000000000000000e+00 0.000000000000000000e+00 -3.897788307999999979e+00 6.751167864000000129e+00 0.000000000000000000e+00 0.000000000000000000e+00 0.000000000000000000e+00 2.000000000000000000e+01
7.058664294999999811e+00 0.000000000000000000e+00 0.000000000000000000e+00 -3.964194556999999897e+00 6.866186868999999859e+00 0.000000000000000000e+00 0.000000000000000000e+00 0.000000000000000000e+00 2.000000000000000000e+01
8.285384391999999210e+00 0.000000000000000000e+00 0.000000000000000000e+00 -3.972578067999999796e+00 6.880707537000000151e+00 0.000000000000000000e+00 0.000000000000000000e+00 0.000000000000000000e+00 2.000000000000000000e+01
8.022790850999999890e+00 0.000000000000000000e+00 0.000000000000000000e+00 2.288508531000000179e+00 6.151043698999999698e+00 0.000000000000000000e+00 0.000000000000000000e+00 0.000000000000000000e+00 2.000000000000000000e+01
6.835260847999999889e+00 0.000000000000000000e+00 0.000000000000000000e+00 2.713073678999999849e+00 7.292188136000000043e+00 0.000000000000000000e+00 0.000000000000000000e+00 0.000000000000000000e+00 2.000000000000000000e+01
