-6.682868369000000541e+01
-6.656027188000000194e+01
-6.563829877999999951e+01
-6.421567407999999944e+01
-6.555024297999999305e+01
-6.787769208000000276e+01
-6.643385005000000376e+01
-6.695578025000000366e+01
-6.527913451999999950e+01
-6.813237562000000480e+01
-6.684870028000000275e+01
-6.573081700000000183e+01
-6.705136244999999917e+01
-6.474423489000000131e+01
-6.575945636000000150e+01
-6.392631034000000056e+01
-6.593242026999999439e+01
-6.569034408000000269e+01
-6.383961177999999848e+01
-6.868710907000000532e+01
-6.456270928000000708e+01
-6.487824188000000447e+01
-6.694197599999999682e+01
-6.591386058000000503e+01
-6.620214085000000637e+01
-6.711761995999999897e+01
-6.533120798999999579e+01
-6.492723343999999486e+01
-6.665594170999999335e+01
-6.610325367999999457e+01
-6.549535260000000392e+01
-6.831652223000000390e+01
-6.541213014999999587e+01
-6.506150205000000142e+01
-6.479033864000000165e+01
-6.612348685000000614e+01
-6.573315218999999843e+01
-6.645165373999999758e+01
-6.636493317999999419e+01
-6.558866272000000208e+01
-6.645270213999999953e+01
-6.624632388999999932e+01
-6.416091702999999313e+01
-6.742663417999999353e+01
-6.593276634000000058e+01
-6.553535963000000208e+01
-6.631077759999999444e+01
-6.787229693999999824e+01
-6.533132886999999300e+01
-6.600600074999999833e+01
-6.711746795999999904e+01
-6.762270327999999608e+01
-6.478744122000000516e+01
-6.818524625999999955e+01
-6.701616756999999325e+01
-6.458222569999999507e+01
-6.559352069999999912e+01
-6.500679746999999509e+01
-6.590110115999999607e+01
-6.501776325999999528e+01
-6.804504298000000517e+01
-6.609638932000000011e+01
-6.564556213000000184e+01
-6.634135799999999961e+01
-6.625197083000000475e+01
-6.659723651000000189e+01
-6.689892387000000440e+01
-6.570299022999999750e+01
-6.600292326000000287e+01
-6.456316076999999609e+01
-6.578791243999999949e+01
-6.560553176000000519e+01
-6.826389136000000235e+01
-6.696319203000000186e+01
-6.519220183000000191e+01
-6.764900790999999458e+01
-6.522474776999999335e+01
-6.615309057999999709e+01
-6.415331462000000329e+01
-6.484261150000000384e+01
-6.705051460999999335e+01
-6.737726772000000608e+01
-6.629803162999999699e+01
-6.343697255000000013e+01
-6.515169978000000128e+01
-6.467337467000000117e+01
-6.725751748000000418e+01
-6.645695766999999421e+01
-6.601673983999999962e+01
-6.632875233999999409e+01
-6.592309525000000292e+01
-6.707762012000000595e+01
-6.743315742999999429e+01
-6.427912295999999515e+01
-6.689429782000000557e+01
-6.634691682000000412e+01
-6.737695684000000540e+01
-6.479724672999999768e+01
-6.485887463999999625e+01
