7.289188496000000406e+00 0.000000000000000000e+00 0.000000000000000000e+00 -3.651935990000000132e+00 6.177486245999999959e+00 0.000000000000000000e+00 4.006074900000000105e-01 3.880729019999999974e-01 2.038318776199999860e+01
7.388197786000000100e+00 0.000000000000000000e+00 0.000000000000000000e+00 -3.662714209000000221e+00 6.470972520000000117e+00 0.000000000000000000e+00 1.942388000000000101e-02 5.219548029999999672e-01 2.047859433700000054e+01
7.451975511999999746e+00 0.000000000000000000e+00 0.000000000000000000e+00 -3.703950745000000211e+00 6.486656391000000355e+00 0.000000000000000000e+00 4.806000000000000234e-06 -3.642000000000000028e-06 2.031113616200000038e+01
7.373966627999999801e+00 0.000000000000000000e+00 0.000000000000000000e+00 -3.665176991000000051e+00 6.418752675000000352e+00 0.000000000000000000e+00 4.755000000000000214e-06 -3.603000000000000062e-06 2.009851481600000156e+01
7.591317401999999603e+00 0.000000000000000000e+00 0.000000000000000000e+00 -3.773209626999999955e+00 6.607948116000000205e+00 0.000000000000000000e+00 4.896000000000000219e-06 -3.710000000000000054e-06 2.069092701199999951e+01
7.280752686999999668e+00 0.000000000000000000e+00 0.000000000000000000e+00 -3.677752318000000020e+00 6.329010505000000286e+00 0.000000000000000000e+00 5.633299449999999986e-01 3.199684990000000173e-01 2.021282905500000027e+01
7.254232333000000033e+00 0.000000000000000000e+00 0.000000000000000000e+00 -3.664355998000000003e+00 6.305956899999999976e+00 0.000000000000000000e+00 5.612780000000000546e-01 3.188030049999999727e-01 2.013920323700000026e+01
7.396705852000000192e+00 0.000000000000000000e+00 0.000000000000000000e+00 -3.803333909000000013e+00 6.555244820000000416e+00 0.000000000000000000e+00 -1.991157410000000128e-01 5.496036920000000325e-01 2.056086041800000075e+01
7.414554454000000128e+00 0.000000000000000000e+00 0.000000000000000000e+00 -3.815911895000000165e+00 6.439602200999999582e+00 0.000000000000000000e+00 -1.801657929999999908e-01 -2.947508859999999897e-01 1.979146312299999977e+01
7.233607380999999670e+00 0.000000000000000000e+00 0.000000000000000000e+00 -3.719469827000000173e+00 6.410700690999999729e+00 0.000000000000000000e+00 -1.947252090000000102e-01 5.374848479999999595e-01 2.010749036900000064e+01
7.403698104000000058e+00 0.000000000000000000e+00 0.000000000000000000e+00 -3.739856171000000007e+00 6.435884459999999585e+00 0.000000000000000000e+00 5.728425379999999567e-01 3.253716030000000092e-01 2.055415017900000052e+01
7.292703458000000083e+00 0.000000000000000000e+00 0.000000000000000000e+00 -3.653697011000000217e+00 6.180465126999999725e+00 0.000000000000000000e+00 4.008006689999999983e-01 3.882600359999999751e-01 2.039301685699999922e+01
7.396470629999999602e+00 0.000000000000000000e+00 0.000000000000000000e+00 -3.676362442999999924e+00 6.438341538000000419e+00 0.000000000000000000e+00 4.770000000000000070e-06 -3.614000000000000042e-06 2.015985181900000001e+01
7.322921372999999789e+00 0.000000000000000000e+00 0.000000000000000000e+00 -3.699053135000000214e+00 6.365666887999999801e+00 0.000000000000000000e+00 5.665926420000000352e-01 3.218216939999999915e-01 2.032989778199999975e+01
7.320249459000000236e+00 0.000000000000000000e+00 0.000000000000000000e+00 -3.764020572000000175e+00 6.487486227999999855e+00 0.000000000000000000e+00 -1.970575719999999864e-01 5.439226879999999875e-01 2.034833213099999938e+01
7.494374652000000303e+00 0.000000000000000000e+00 0.000000000000000000e+00 -3.853554515999999985e+00 6.641802660999999830e+00 0.000000000000000000e+00 -2.017449380000000125e-01 5.568608590000000413e-01 2.083235351200000096e+01
7.222467841000000277e+00 0.000000000000000000e+00 0.000000000000000000e+00 -3.713741954000000067e+00 6.400828402000000139e+00 0.000000000000000000e+00 -1.944253380000000031e-01 5.366571369999999508e-01 2.007652543100000031e+01
7.247269239999999613e+00 0.000000000000000000e+00 0.000000000000000000e+00 -3.660838705999999831e+00 6.299904025000000019e+00 0.000000000000000000e+00 5.607392479999999679e-01 3.184969970000000039e-01 2.011987229500000041e+01
7.352121687000000350e+00 0.000000000000000000e+00 0.000000000000000000e+00 -3.683465972000000033e+00 6.230821253000000226e+00 0.000000000000000000e+00 4.040662440000000188e-01 3.914234349999999862e-01 2.055917155499999893e+01
7.510724329000000310e+00 0.000000000000000000e+00 0.000000000000000000e+00 -3.793918705999999919e+00 6.528920184999999599e+00 0.000000000000000000e+00 5.811234229999999723e-01 3.300751029999999808e-01 2.085127643599999914e+01
7.402465579000000240e+00 0.000000000000000000e+00 0.000000000000000000e+00 -3.679342189000000207e+00 6.443559910000000279e+00 0.000000000000000000e+00 4.774000000000000371e-06 -3.616999999999999844e-06 2.017619167999999874e+01
7.301252394999999673e+00 0.000000000000000000e+00 0.000000000000000000e+00 -3.754252414999999843e+00 6.470650298999999883e+00 0.000000000000000000e+00 -1.965461799999999870e-01 5.425111329999999787e-01 2.029552538200000100e+01
7.416285267000000125e+00 0.000000000000000000e+00 0.000000000000000000e+00 -3.746214369000000044e+00 6.446826225999999771e+00 0.000000000000000000e+00 5.738164380000000397e-01 3.259247730000000010e-01 2.058909466800000132e+01
7.300654387999999884e+00 0.000000000000000000e+00 0.000000000000000000e+00 -3.628737670000000026e+00 6.354937206999999866e+00 0.000000000000000000e+00 4.707999999999999647e-06 -3.567999999999999974e-06 1.989869466300000056e+01
7.274558597999999598e+00 0.000000000000000000e+00 0.000000000000000000e+00 -3.674623475999999833e+00 6.323626110000000189e+00 0.000000000000000000e+00 5.628506930000000130e-01 3.196962870000000234e-01 2.019563302299999918e+01
7.245408825000000164e+00 0.000000000000000000e+00 0.000000000000000000e+00 -3.591926288999999883e+00 6.345910432000000156e+00 0.000000000000000000e+00 1.904848199999999853e-02 5.118671759999999793e-01 2.008281213300000090e+01
7.308969126000000038e+00 0.000000000000000000e+00 0.000000000000000000e+00 -3.632870451000000056e+00 6.362174865000000068e+00 0.000000000000000000e+00 4.712999999999999599e-06 -3.571999999999999851e-06 1.992135735000000096e+01
7.264245732000000011e+00 0.000000000000000000e+00 0.000000000000000000e+00 -3.601264723999999973e+00 6.362408785999999594e+00 0.000000000000000000e+00 1.909800500000000123e-02 5.131979490000000421e-01 2.013502423999999991e+01
7.214502025999999901e+00 0.000000000000000000e+00 0.000000000000000000e+00 -3.576604179999999911e+00 6.318840630000000402e+00 0.000000000000000000e+00 1.896722699999999970e-02 5.096836999999999618e-01 1.999714471800000126e+01
7.349056079000000352e+00 0.000000000000000000e+00 0.000000000000000000e+00 -3.681930079999999883e+00 6.228223192999999824e+00 0.000000000000000000e+00 4.038977610000000218e-01 3.912602230000000181e-01 2.055059901599999961e+01
7.342394901999999668e+00 0.000000000000000000e+00 0.000000000000000000e+00 -3.708889867999999979e+00 6.382594830999999580e+00 0.000000000000000000e+00 5.680993570000000270e-01 3.226775009999999777e-01 2.038396020200000081e+01
7.304839258000000335e+00 0.000000000000000000e+00 0.000000000000000000e+00 -3.659777134000000043e+00 6.190750050000000115e+00 0.000000000000000000e+00 4.014676420000000134e-01 3.889061409999999830e-01 2.042695291000000068e+01
7.437764088999999856e+00 0.000000000000000000e+00 0.000000000000000000e+00 -3.696887058999999809e+00 6.474285896999999679e+00 0.000000000000000000e+00 4.796999999999999981e-06 -3.634999999999999926e-06 2.027240144900000018e+01
7.290963299999999592e+00 0.000000000000000000e+00 0.000000000000000000e+00 -3.623920785000000144e+00 6.346501489999999635e+00 0.000000000000000000e+00 4.702000000000000043e-06 -3.563000000000000022e-06 1.987228059399999935e+01
7.269781567999999972e+00 0.000000000000000000e+00 0.000000000000000000e+00 -3.738070337999999992e+00 6.442759643999999675e+00 0.000000000000000000e+00 -1.956990010000000113e-01 5.401727290000000181e-01 2.020804491499999855e+01
7.206622283999999823e+00 0.000000000000000000e+00 0.000000000000000000e+00 -3.705594281000000212e+00 6.386785460999999664e+00 0.000000000000000000e+00 -1.939987830000000080e-01 5.354797519999999755e-01 2.003247903000000107e+01
7.315617459000000267e+00 0.000000000000000000e+00 0.000000000000000000e+00 -3.761638829999999878e+00 6.483381171000000442e+00 0.000000000000000000e+00 -1.969328810000000041e-01 5.435785119999999582e-01 2.033545641199999920e+01
7.286619953999999844e+00 0.000000000000000000e+00 0.000000000000000000e+00 -3.680716070999999978e+00 6.334110800999999569e+00 0.000000000000000000e+00 5.637839110000000264e-01 3.202263490000000212e-01 2.022911776500000158e+01
7.317041499000000115e+00 0.000000000000000000e+00 0.000000000000000000e+00 -3.696083014000000055e+00 6.360555632999999709e+00 0.000000000000000000e+00 5.661377010000000487e-01 3.215632900000000016e-01 2.031357407300000162e+01
7.346818042999999854e+00 0.000000000000000000e+00 0.000000000000000000e+00 -3.680808808000000099e+00 6.226326488999999853e+00 0.000000000000000000e+00 4.037747600000000103e-01 3.911410710000000068e-01 2.054434066399999992e+01
7.286914058999999888e+00 0.000000000000000000e+00 0.000000000000000000e+00 -3.746879744000000123e+00 6.457943114999999956e+00 0.000000000000000000e+00 -1.961601990000000073e-01 5.414457390000000370e-01 2.025566864900000041e+01
7.271961755000000416e+00 0.000000000000000000e+00 0.000000000000000000e+00 -3.673311723999999945e+00 6.321368727000000298e+00 0.000000000000000000e+00 5.626497689999999663e-01 3.195821629999999747e-01 2.018842366599999849e+01
7.304685993999999738e+00 0.000000000000000000e+00 0.000000000000000000e+00 -3.621313066999999997e+00 6.397828495999999809e+00 0.000000000000000000e+00 1.920432399999999831e-02 5.160549370000000469e-01 2.024711649099999988e+01
7.358113484999999621e+00 0.000000000000000000e+00 0.000000000000000000e+00 -3.686467905999999850e+00 6.235899219000000215e+00 0.000000000000000000e+00 4.043955479999999936e-01 3.917424350000000000e-01 2.057592677499999922e+01
7.385920792000000290e+00 0.000000000000000000e+00 0.000000000000000000e+00 -3.730876254000000003e+00 6.420431004000000108e+00 0.000000000000000000e+00 5.714670630000000529e-01 3.245903399999999772e-01 2.050479679800000099e+01
7.272800853999999759e+00 0.000000000000000000e+00 0.000000000000000000e+00 -3.739622833999999951e+00 6.445435450999999816e+00 0.000000000000000000e+00 -1.957802780000000020e-01 5.403970740000000328e-01 2.021643772099999836e+01
7.294894989000000329e+00 0.000000000000000000e+00 0.000000000000000000e+00 -3.625875001999999903e+00 6.349923872999999830e+00 0.000000000000000000e+00 4.704000000000000194e-06 -3.565000000000000172e-06 1.988299682199999907e+01
7.304166700999999762e+00 0.000000000000000000e+00 0.000000000000000000e+00 -3.755750931000000126e+00 6.473233070000000033e+00 0.000000000000000000e+00 -1.966246319999999936e-01 5.427276770000000194e-01 2.030362637300000017e+01
7.339431528999999621e+00 0.000000000000000000e+00 0.000000000000000000e+00 -3.638538238000000202e+00 6.428260465000000146e+00 0.000000000000000000e+00 1.929567199999999982e-02 5.185096080000000107e-01 2.034342410800000067e+01
7.228273169999999581e+00 0.000000000000000000e+00 0.000000000000000000e+00 -3.716727013999999940e+00 6.405973308000000088e+00 0.000000000000000000e+00 -1.945816150000000133e-01 5.370884959999999708e-01 2.009266269200000110e+01
