-1.079715092299999952e+02
-1.051728079500000064e+02
-1.057669858799999929e+02
-1.064379405300000059e+02
-1.057335558599999956e+02
-1.084461869999999948e+02
-1.075557456500000058e+02
-1.070065012000000024e+02
-1.080527162000000061e+02
-1.070327231299999937e+02
-1.064962663099999958e+02
-1.081128723199999939e+02
-1.067460473200000024e+02
-1.065650324000000069e+02
-1.076217172399999953e+02
-1.046485115699999966e+02
-1.073557646400000039e+02
-1.083154261699999950e+02
-1.067086016699999931e+02
-1.066113617299999987e+02
-1.068119456799999938e+02
-1.065797523600000005e+02
-1.067131896899999930e+02
-1.071718013400000018e+02
-1.071836547200000069e+02
-1.080321731300000039e+02
-1.068878564599999947e+02
-1.061435896899999989e+02
-1.077755104400000050e+02
-1.072518711599999932e+02
-1.059922891500000048e+02
-1.060026216800000043e+02
-1.067300918300000063e+02
-1.060223227299999991e+02
-1.065321744999999964e+02
-1.083453978999999947e+02
-1.069955840800000004e+02
-1.073610369299999974e+02
-1.080878110499999991e+02
-1.070077254100000061e+02
-1.084955289300000061e+02
-1.065444487400000071e+02
-1.068937947799999932e+02
-1.071921115399999991e+02
-1.058428109599999942e+02
-1.083026738899999941e+02
-1.082204206699999958e+02
-1.070373401300000040e+02
-1.049950497500000068e+02
-1.072375608199999988e+02
