-3.083000000000000185e-01 -4.193939999999999890e-01 8.548600000000000643e-02 -7.523410000000000375e-01 -7.187200000000000533e-02 5.321360000000000534e-01 -2.028790000000000038e-01 -1.790349999999999997e-01 -3.334539999999999726e-01 6.908200000000000451e-02 5.456149999999999611e-01 -6.329979999999999496e-01 6.329209999999999559e-01 -1.448270000000000113e-01 1.165520000000000028e-01 -7.981639999999999846e-01 -4.356169999999999765e-01 2.015059999999999907e-01 -2.373290000000000122e-01 3.837800000000000239e-02 4.287810000000000232e-01 -2.798539999999999917e-01 4.430669999999999886e-01 -7.762800000000000256e-02 -8.275019999999999598e-01 7.178830000000000489e-01 3.006869999999999821e-01 -9.277100000000000624e-02 -5.382890000000000175e-01 -3.536860000000000004e-01 -2.171150000000000024e-01 -1.271120000000000028e-01 3.249170000000000114e-01 -2.752060000000000062e-01 1.656060000000000032e-01 1.046249999999999958e-01 8.415920000000000067e-01 -8.711569999999999592e-01 -1.941299999999999970e-01 5.262569999999999748e-01 -4.056080000000000241e-01 -1.581239999999999868e-01 1.444709999999999883e-01 -1.351120000000000099e-01 2.698130000000000250e-01 -3.402339999999999809e-01 3.100490000000000190e-01 -5.101499999999999785e-02 6.317939999999999667e-01 2.069709999999999883e-01 -2.889200000000000101e-01 -1.861680000000000001e-01 -2.579549999999999899e-01 -2.805000000000000202e-03 3.596019999999999772e-01 5.634310000000000151e-01 1.111869999999999942e-01 6.430510000000000392e-01 1.091570000000000040e-01 1.416600000000000081e-01 5.200850000000000195e-01 -2.974450000000000149e-01 -1.055109999999999937e-01 5.643989999999999840e-01 -3.161519999999999886e-01 -3.000369999999999981e-01 -5.622279999999999500e-01 1.066340000000000066e-01 2.471949999999999981e-01 4.038289999999999935e-01 1.235050000000000037e-01 -3.243809999999999749e-01 -1.953570000000000029e-01 7.321760000000000490e-01 -4.034470000000000001e-01 -5.655409999999999604e-01 -2.163299999999999945e-02 7.610590000000000410e-01 4.869290000000000007e-01 8.749599999999999600e-01 -1.248129999999999934e-01 -1.803579999999999905e-01 2.289700000000000069e-02 7.027700000000000613e-02 3.484160000000000035e-01 -4.940629999999999744e-01 2.830500000000000238e-01 -1.510799999999999921e-01 -2.450569999999999971e-01 -6.279820000000000402e-01
2.199969999999999981e-01 -2.033155999999999963e+00 -7.243199999999999639e-02 -2.611066000000000109e+00 1.514759999999999995e-01 1.008204000000000100e+00 9.512540000000000440e-01 -2.041419999999999901e-01 -1.272379999999999900e-01 -1.322937999999999947e+00 7.551769999999999872e-01 -4.391459999999999808e-01 -1.105242999999999975e+00 6.631780000000000452e-01 -8.923659999999999926e-01 -5.194399999999999712e-02 -1.429100000000000092e-01 -5.277799999999999853e-02 9.549499999999999655e-01 1.319315000000000015e+00 -1.310799999999999986e-02 1.193513999999999964e+00 3.001690000000000191e-01 7.493600000000000261e-02 -1.011959999999999943e-01 4.959259999999999780e-01 -1.720639999999999947e-01 -1.106789000000000023e+00 9.432319999999999593e-01 4.925629999999999731e-01 1.447400000000000075e-02 5.972629999999999884e-01 -3.119330000000000158e-01 -1.147343000000000002e+00 -6.334880000000000511e-01 -3.238750000000000240e-01 -1.312470000000000026e-01 -9.967510000000000536e-01 -1.751240000000000019e-01 -1.335709000000000035e+00 3.583999999999999686e-02 -3.119009999999999838e-01 7.597549999999999581e-01 -8.405909999999999771e-01 1.438622000000000067e+00 2.211259999999999892e-01 2.410740000000000105e-01 1.063971000000000000e+00 2.269568000000000030e+00 5.861250000000000071e-01 -2.828879999999999728e-01 5.335509999999999975e-01 -5.432499999999999829e-02 -2.820480000000000209e-01 5.485910000000000508e-01 2.575649999999999884e-01 3.581999999999999768e-02 1.135672000000000015e+00 8.053299999999999348e-02 -2.214810000000000112e-01 -5.102409999999999446e-01 -3.715660000000000074e-01 1.329900000000000006e-02 7.832699999999999385e-02 -3.356149999999999967e-01 -8.576160000000000450e-01 4.547209999999999863e-01 -7.795649999999999524e-01 3.805799999999999739e-01 -9.834270000000000511e-01 -2.494869999999999866e-01 2.007609999999999950e-01 -3.308550000000000102e-01 -8.192499999999999782e-02 3.481800000000000173e-02 7.322229999999999572e-01 -1.022227999999999914e+00 1.195100000000000051e-01 2.696300000000000086e-02 3.006300000000000083e-01 4.460620000000000140e-01 3.465050000000000074e-01 1.403923999999999950e+00 3.874449999999999839e-01 9.196999999999999620e-02 -2.762499999999999956e-01 4.878000000000000391e-03 2.048379999999999923e-01 -1.094289999999999985e-01 -1.165470000000000006e+00
-2.326805999999999930e+00 5.288429999999999520e-01 1.576400000000000023e-01 -4.031790000000000096e-01 -6.206650000000000222e-01 -5.713420000000000165e-01 -2.343550000000000078e-01 -4.111279999999999935e-01 -7.083990000000000009e-01 2.996260000000000034e-01 5.833890000000000464e-01 -7.919880000000000253e-01 7.317409999999999748e-01 -2.960999999999999743e-01 -1.776099999999999901e-02 4.696359999999999979e-01 -6.258199999999999874e-02 -2.021840000000000026e-01 -3.876660000000000106e-01 -6.084039999999999448e-01 -2.482530000000000014e-01 -2.186599999999999933e-01 -2.292299999999999893e-02 3.134410000000000251e-01 8.940310000000000201e-01 8.976060000000000150e-01 6.989919999999999467e-01 -3.713890000000000247e-01 -9.642389999999999572e-01 5.948719999999999564e-01 3.187710000000000266e-01 -6.482179999999999609e-01 2.195700000000000082e-02 -1.692015000000000047e+00 4.097219999999999751e-01 -3.840680000000000205e-01 -7.913800000000000001e-02 -6.798359999999999959e-01 8.075890000000000013e-01 -4.941369999999999929e-01 2.012790000000000135e-01 3.068350000000000244e-01 2.611310000000000020e-01 7.103819999999999579e-01 8.795539999999999470e-01 -9.667879999999999807e-01 5.758320000000000105e-01 2.792979999999999907e-01 -9.445909999999999584e-01 -2.164540000000000075e-01 6.109989999999999588e-01 2.187368000000000201e+00 1.705379999999999951e-01 7.011079999999999535e-01 1.749999999999999982e-04 -5.431699999999999723e-02 -2.230219999999999980e-01 1.279060000000000086e+00 -2.543869999999999743e-01 4.748029999999999751e-01 -8.595220000000000082e-01 1.307639999999999914e-01 -1.023716000000000070e+00 3.295409999999999728e-01 -2.318209999999999993e-01 -1.374505000000000088e+00 2.021079999999999988e+00 -1.494129999999999903e-01 -3.541899999999999910e-02 6.352870000000000461e-01 4.400890000000000080e-01 -7.194329999999999892e-01 5.339390000000000525e-01 7.768350000000000533e-01 1.168990000000000029e-01 -1.010804999999999954e+00 -1.732940000000000036e-01 7.756000000000000394e-02 -1.020650000000000057e+00 7.219029999999999614e-01 1.123700000000000046e-02 -2.788900000000000060e-02 -1.035571999999999937e+00 5.955970000000000431e-01 9.361340000000000217e-01 3.755680000000000129e-01 -4.646989999999999732e-01 1.400720000000000021e-01 -9.339999999999999691e-02 1.164079999999999976e-01
-2.741919999999999913e-01 -2.338999999999999968e-01 2.371659999999999879e-01 -4.657669999999999866e-01 5.101569999999999716e-01 -5.159399999999999542e-01 -4.617089999999999805e-01 -6.803630000000000511e-01 -3.534340000000000259e-01 -5.826649999999999885e-01 1.684970000000000079e-01 3.236519999999999953e-01 -1.835890000000000022e-01 -1.004799999999999964e-02 1.925109999999999877e-01 6.249299999999999994e-02 5.036249999999999893e-01 -4.818370000000000153e-01 4.064530000000000087e-01 -1.162393999999999927e+00 3.749460000000000015e-01 -3.357510000000000217e-01 -8.139799999999999813e-02 3.595329999999999915e-01 1.373810000000000031e-01 -6.200919999999999765e-01 -2.024259999999999948e-01 -1.123910000000000048e-01 -4.017410000000000148e-01 -3.095879999999999743e-01 2.736149999999999971e-01 -1.244220000000000048e-01 4.403500000000000192e-01 -2.457529999999999992e-01 5.181040000000000090e-01 1.926900000000000140e-02 -1.385180000000000078e+00 1.402458999999999900e+00 -5.690640000000000143e-01 -3.519100000000000006e-02 3.290569999999999884e-01 -2.108710000000000029e-01 3.764129999999999976e-01 1.563806000000000029e+00 -1.077341000000000104e+00 8.452370000000000161e-01 4.265030000000000210e-01 7.954200000000000159e-02 -4.221829999999999750e-01 -3.549000000000000071e-03 3.963599999999999762e-02 5.838510000000000089e-01 -2.202659999999999896e-01 4.031870000000000176e-01 8.418090000000000295e-01 -3.582509999999999861e-01 -2.642360000000000264e-01 8.855200000000000571e-02 5.615400000000000252e-02 9.255229999999999846e-01 -4.405979999999999897e-01 -4.154160000000000075e-01 -3.879920000000000035e-01 1.833269999999999900e-01 -1.081339999999999940e-01 -4.487700000000000022e-02 -1.231259999999999993e-01 -7.349480000000000457e-01 1.017751000000000072e+00 1.319797000000000109e+00 9.053350000000000009e-01 6.637939999999999952e-01 6.843230000000000146e-01 4.592339999999999756e-01 -3.318070000000000186e-01 -5.263189999999999813e-01 -3.072380000000000111e-01 -1.060080000000000050e-01 2.400180000000000091e-01 1.013150000000000023e-01 -6.430129999999999457e-01 -2.739619999999999833e-01 5.252899999999999930e-02 -3.398400000000000032e-02 -1.243179999999999980e-01 -8.769719999999999738e-01 3.890359999999999929e-01 -5.057400000000000090e-02 -6.576429999999999776e-01 6.652099999999999680e-02
-3.040599999999999900e-02 7.731399999999999384e-02 6.061520000000000241e-01 -8.450000000000000566e-02 2.524440000000000017e-01 9.830999999999999461e-03 -4.829950000000000077e-01 2.072239999999999915e-01 1.526990000000000014e-01 -4.047769999999999979e-01 6.153539999999999566e-01 2.092749999999999888e-01 1.557606999999999964e+00 4.327849999999999753e-01 4.637100000000000249e-02 2.649110000000000076e-01 8.766070000000000251e-01 6.848969999999999780e-01 -5.586619999999999919e-01 2.172149999999999914e-01 3.913710000000000244e-01 -5.851049999999999862e-01 -1.263627000000000056e+00 5.718309999999999782e-01 -3.492950000000000221e-01 -1.072368999999999906e+00 2.947629999999999972e-01 2.866759999999999864e-01 -5.999189999999999801e-01 1.494092999999999893e+00 4.640880000000000005e-01 -2.955000000000000161e-03 1.215961999999999987e+00 -1.243959000000000037e+00 7.388470000000000315e-01 -6.672679999999999723e-01 7.080769999999999564e-01 -4.680900000000000338e-02 -1.691519999999999968e-01 1.481339999999999879e-01 -2.100740000000000107e-01 2.034019999999999995e-01 4.671390000000000264e-01 -6.663900000000000379e-02 -8.964229999999999698e-01 -4.818209999999999993e-01 7.134340000000000126e-01 1.198030000000000067e-01 -8.726260000000000128e-01 -3.361669999999999936e-01 -4.667069999999999830e-01 1.595746000000000109e+00 -2.927870000000000195e-01 3.255299999999999860e-02 1.312029999999999863e-01 2.948470000000000257e-01 -8.217299999999999605e-02 9.894760000000000222e-01 -2.712149999999999839e-01 3.128679999999999795e-01 -7.784299999999999553e-02 -4.187290000000000179e-01 -2.492300000000000071e-02 -2.528199999999999892e-02 5.148160000000000514e-01 -2.366613000000000078e+00 -1.756600000000000106e-01 -4.286550000000000082e-01 -9.503519999999999746e-01 -2.697000000000000092e-02 1.065659999999999941e-01 9.126099999999999490e-02 -1.930560000000000054e-01 2.498190000000000133e-01 8.018200000000000327e-02 -1.063766999999999907e+00 -4.508630000000000138e-01 6.917419999999999680e-01 -3.685000000000000081e-02 9.827099999999999724e-02 1.486679999999999946e-01 4.649369999999999892e-01 -1.419600000000000029e-02 -3.598140000000000227e-01 -9.985979999999999857e-01 -5.192430000000000101e-01 -4.633849999999999913e-01 6.141760000000000552e-01 5.987050000000000427e-01 -9.109140000000000015e-01
-7.813799999999999912e-02 -2.530189999999999939e-01 1.335399999999999955e-02 1.801850000000000118e-01 6.438719999999999999e-01 1.961279999999999968e-01 4.626839999999999842e-01 -2.354320000000000024e-01 -3.498859999999999748e-01 -5.274199999999999722e-02 2.278890000000000082e-01 -3.717809999999999726e-01 6.655469999999999997e-01 4.284799999999999720e-02 -2.822180000000000244e-01 4.625940000000000052e-01 -5.599030000000000395e-01 -2.559790000000000121e-01 1.997500000000000109e-01 -1.297999999999999987e-01 -1.413570000000000104e-01 2.054509999999999947e-01 9.693699999999999539e-02 5.605630000000000335e-01 -2.431089999999999918e-01 -1.195750000000000007e-01 3.833079999999999821e-01 4.565000000000000308e-02 1.246310000000000057e-01 4.072729999999999961e-01 -5.288869999999999960e-01 -6.842869999999999786e-01 1.847400000000000084e-02 -9.504300000000000248e-02 4.590040000000000231e-01 -4.536959999999999882e-01 -3.192070000000000185e-01 3.509320000000000217e-01 -6.817609999999999504e-01 -6.478199999999999514e-01 -1.172899999999999984e-02 1.970240000000000047e-01 2.895510000000000028e-01 -1.291499999999999940e-02 -4.925100000000000311e-02 5.735040000000000138e-01 1.895280000000000020e-01 4.841700000000000170e-02 -4.074070000000000191e-01 -2.410629999999999995e-01 3.528859999999999775e-01 3.752400000000000180e-01 -4.706290000000000195e-01 -3.819299999999999778e-02 4.453329999999999789e-01 -2.747729999999999895e-01 3.141660000000000008e-01 1.778500000000000081e-01 -4.397940000000000182e-01 -3.140660000000000118e-01 3.231459999999999888e-01 4.936139999999999972e-01 1.162636000000000003e+00 1.443770000000000053e-01 -2.946929999999999827e-01 -1.126489999999999991e-01 -2.510820000000000274e-01 -1.328989999999999894e-01 -1.775329999999999964e-01 -5.063079999999999803e-01 -2.752599999999999839e-02 8.197699999999999432e-02 4.739999999999999747e-04 -1.128559999999999980e-01 -9.908200000000000340e-02 -8.518470000000000208e-01 8.024599999999999789e-02 9.225999999999999826e-03 1.411610000000000087e-01 9.675890000000000324e-01 1.401299999999999941e-02 -2.027090000000000003e-01 2.353590000000000126e-01 -1.286239999999999883e-01 -5.565170000000000394e-01 -4.576800000000000312e-02 -4.029800000000000049e-02 4.832000000000000184e-02 1.342129999999999990e-01 -2.630700000000000260e-01
1.890050000000000063e-01 3.504689999999999750e-01 -3.569399999999999656e-02 -1.291110000000000035e-01 -7.062200000000000422e-02 -1.454529999999999990e-01 -4.303409999999999735e-01 1.140860999999999903e+00 2.055190000000000072e-01 -2.889669999999999739e-01 -7.102589999999999737e-01 2.503009999999999957e-01 -2.842300000000000035e-02 9.617480000000000473e-01 9.322600000000000331e-02 9.666200000000000347e-01 -9.629870000000000374e-01 -1.434950000000000114e-01 -1.710530000000000106e-01 -3.237180000000000057e-01 6.761829999999999785e-01 -5.488490000000000313e-01 1.508100000000000065e-02 3.210939999999999905e-01 3.214779999999999860e-01 7.159799999999999498e-01 -5.192189999999999861e-01 2.266519999999999924e-01 3.725120000000000098e-01 -2.493120000000000058e-01 -2.615589999999999860e-01 8.204350000000000254e-01 -3.665610000000000257e-01 7.976800000000000557e-02 -2.799999999999999972e-03 -3.364240000000000008e-01 1.150639999999999996e-01 1.700039999999999885e-01 -4.684829999999999828e-01 1.965270000000000072e-01 -6.890200000000000491e-02 -2.744389999999999885e-01 -7.260940000000000172e-01 3.665200000000000125e-01 1.459060000000000079e-01 -5.928849999999999953e-01 -5.753089999999999593e-01 4.571100000000000163e-01 -9.223399999999999654e-02 7.345789999999999820e-01 2.918379999999999863e-01 2.445519999999999916e-01 -4.231110000000000149e-01 -2.492439999999999933e-01 -1.949079999999999979e-01 -3.760049999999999781e-01 -2.384580000000000033e-01 8.327199999999999880e-02 -1.073609999999999981e-01 1.478790000000000104e-01 -4.800470000000000015e-01 6.171750000000000291e-01 2.699349999999999805e-01 -1.069979999999999959e-01 -2.162930000000000130e-01 -8.584739999999999593e-01 1.947419999999999984e-01 5.496459999999999679e-01 -1.886790000000000134e-01 7.979999999999999594e-02 1.682710000000000039e-01 4.123379999999999823e-01 7.758639999999999981e-01 -7.761090000000000488e-01 1.168990000000000029e-01 3.516699999999999687e-02 -6.115380000000000260e-01 -1.856700000000000017e-02 5.321789999999999576e-01 5.375499999999999723e-02 -7.938900000000000123e-02 5.050360000000000404e-01 -4.805299999999999849e-02 6.273670000000000080e-01 -1.155615000000000059e+00 -5.597039999999999793e-01 1.132750000000000007e-01 6.613599999999999479e-01 -1.204263000000000083e+00 4.302199999999999774e-02
-3.174699999999999744e-01 9.225999999999999479e-02 2.064960000000000129e-01 9.194399999999999795e-02 4.020320000000000005e-01 -2.290689999999999948e-01 9.751640000000000308e-01 -1.741820000000000035e-01 -5.590400000000000230e-02 1.712200000000000111e-01 1.870060000000000056e-01 2.291960000000000108e-01 7.999549999999999716e-01 3.077059999999999795e-01 3.805140000000000189e-01 -3.742130000000000178e-01 -5.812619999999999454e-01 -7.046090000000000408e-01 4.491699999999999859e-02 3.246009999999999729e-01 -3.683660000000000267e-01 -2.824199999999999974e-02 -1.260680000000000134e-01 -2.966679999999999873e-01 8.775389999999999580e-01 -7.271370000000000333e-01 3.257260000000000155e-01 -7.438500000000000112e-01 2.338999999999999933e-03 2.792999999999999910e-03 -2.152789999999999981e-01 5.100130000000000496e-01 9.504899999999999460e-02 4.003599999999999937e-01 -5.397499999999999520e-01 6.014659999999999451e-01 -1.224149999999999960e-01 -3.833570000000000033e-01 1.260509999999999964e-01 -1.407032999999999978e+00 4.319359999999999866e-01 7.398169999999999469e-01 2.309700000000000086e-01 1.621299999999999963e-01 -1.130899999999999961e-01 7.133840000000000181e-01 1.399890000000000023e-01 -6.703000000000000624e-02 6.556070000000000508e-01 5.679349999999999676e-01 8.422599999999999532e-02 3.215160000000000240e-01 -4.978949999999999765e-01 -8.025219999999999576e-01 -1.564999999999999985e-03 -5.865829999999999655e-01 -9.662479999999999958e-01 -8.924579999999999735e-01 9.233500000000000041e-01 7.960469999999999491e-01 5.274429999999999952e-01 5.741389999999999549e-01 1.704039999999999999e-01 -7.079860000000000042e-01 2.459590000000000110e-01 1.164878999999999998e+00 -3.521239999999999926e-01 3.634339999999999793e-01 3.822650000000000214e-01 6.187390000000000390e-01 2.757740000000000191e-01 -1.005975999999999981e+00 -7.570219999999999727e-01 -4.919699999999999768e-02 4.419980000000000020e-01 -2.100559999999999927e-01 1.035689999999999944e-01 -1.498039999999999927e-01 1.271760000000000113e-01 -4.275109999999999744e-01 -1.297429999999999972e-01 3.673130000000000006e-01 -1.123500000000000019e-02 -2.794200000000000017e-01 -3.589030000000000276e-01 -5.895310000000000272e-01 -7.169539999999999802e-01 -4.346280000000000143e-01 -9.204660000000000064e-01 1.384759999999999880e-01
4.250749999999999806e-01 6.434760000000000479e-01 -8.621609999999999552e-01 -5.732999999999999902e-02 -4.923239999999999839e-01 6.873289999999999678e-01 3.927559999999999940e-01 -3.536489999999999911e-01 2.661259999999999737e-01 -1.626849999999999963e-01 -7.555709999999999926e-01 4.808549999999999769e-01 -3.606429999999999914e-01 -1.687939999999999996e-01 -2.247270000000000101e-01 5.496550000000000047e-01 -8.348899999999999377e-02 -3.178730000000000167e-01 -3.593930000000000180e-01 -5.506140000000000478e-01 -3.601509999999999989e-01 2.681769999999999987e-01 -1.765279999999999905e-01 2.933699999999999850e-02 2.048230000000000051e-01 -1.158050000000000052e-01 -2.100710000000000077e-01 9.612900000000000611e-02 5.961750000000000105e-01 -2.527780000000000027e-01 6.497030000000000305e-01 -5.135260000000000380e-01 -6.081099999999999700e-02 7.138569999999999638e-01 -2.675020000000000175e-01 -6.597500000000000586e-02 -5.549859999999999793e-01 1.243049999999999988e-01 -4.919879999999999809e-01 2.153970000000000051e-01 8.635119999999999463e-01 2.516650000000000276e-01 -1.980669999999999931e-01 2.473619999999999985e-01 3.786280000000000201e-01 1.340840000000000087e-01 1.967530000000000112e-01 8.863349999999999840e-01 5.705699999999999661e-02 -2.391979999999999940e-01 -4.722640000000000171e-01 -4.046449999999999769e-01 6.561630000000000518e-01 -4.910789999999999877e-01 6.307400000000000506e-02 -5.652660000000000462e-01 -2.468589999999999951e-01 -4.146179999999999866e-01 5.000050000000000328e-01 1.257040000000000102e-01 -8.303800000000000070e-02 1.780779999999999863e-01 9.899550000000000294e-01 -6.620499999999999996e-02 -2.101449999999999985e-01 -4.526089999999999836e-01 -1.065490000000000048e-01 3.463990000000000125e-01 4.084639999999999938e-01 5.084000000000000324e-02 2.061429999999999929e-01 -1.998719999999999941e-01 5.225659999999999750e-01 2.341729999999999923e-01 3.389639999999999875e-01 3.000999999999999779e-01 -2.578679999999999861e-01 -4.791600000000000026e-02 -2.717780000000000196e-01 -2.280919999999999892e-01 2.352800000000000030e-02 -2.731899999999999884e-01 -2.013300000000000159e-02 -7.804099999999999926e-02 -5.875909999999999744e-01 2.288840000000000041e-01 -8.718800000000000161e-02 -7.425730000000000386e-01 -2.292500000000000093e-02 5.547200000000000047e-02
2.473400000000000043e-01 -5.406779999999999919e-01 7.312170000000000059e-01 4.446200000000000152e-01 8.318929999999999936e-01 2.985579999999999901e-01 5.235689999999999511e-01 1.444469999999999921e-01 3.809980000000000033e-01 2.763539999999999885e-01 -5.678710000000000147e-01 1.749529999999999974e-01 -2.007270000000000110e+00 -1.300450000000000106e+00 4.613149999999999751e-01 -6.410789999999999544e-01 3.950480000000000103e-01 1.764969999999999872e-01 4.267329999999999735e-01 -2.787609999999999810e-01 3.720439999999999858e-01 1.215699999999999940e-02 -4.997900000000000120e-01 6.163800000000000390e-01 -6.786750000000000282e-01 3.047670000000000101e-01 -1.083469999999999989e-01 6.199010000000000353e-01 -2.941790000000000238e-01 -4.380749999999999922e-01 2.779510000000000036e-01 -1.856879999999999920e-01 1.442749999999999866e-01 -1.797330000000000039e-01 9.144299999999999651e-02 2.231190000000000118e-01 -2.672359999999999736e-01 9.001569999999999849e-01 -4.046899999999999942e-01 -4.245019999999999905e-01 -1.456729999999999969e-01 -2.240040000000000087e-01 4.429580000000000184e-01 -1.866389999999999993e-01 -4.561100000000000154e-01 -6.308989999999999876e-01 1.242670000000000025e-01 7.691130000000000466e-01 -3.630360000000000253e-01 5.988000000000000267e-02 -3.128440000000000110e-01 1.079911999999999983e+00 -1.093670000000000059e-01 -6.255249999999999977e-01 -2.921030000000000015e-01 8.190779999999999728e-01 2.552670000000000217e-01 -2.206259999999999888e-01 -9.791640000000000343e-01 -2.646390000000000131e-01 2.306899999999999923e-02 -7.725589999999999957e-01 -1.019158999999999926e+00 5.808849999999999847e-01 -5.729849999999999666e-01 4.768499999999999822e-02 -2.007760000000000100e-01 4.612140000000000128e-01 -1.155299999999999938e-01 -3.924099999999999810e-01 4.508369999999999878e-01 3.974909999999999832e-01 -1.516440000000000010e-01 -1.176493000000000011e+00 1.147370000000000057e-01 1.065083000000000002e+00 2.119378000000000206e+00 -9.305740000000000123e-01 -4.293999999999999900e-02 7.063460000000000294e-01 1.726020000000000054e-01 3.700820000000000221e-01 4.728600000000000164e-02 3.238429999999999920e-01 2.634699999999999820e-01 -2.790329999999999755e-01 -1.726090000000000124e-01 -1.611539999999999917e-01 4.332909999999999817e-01 -5.879870000000000374e-01
-9.084269999999999845e-01 3.862680000000000002e-01 3.480420000000000180e-01 -8.054719999999999658e-01 9.082620000000000138e-01 -1.622290000000000121e-01 1.527020000000000044e-01 -2.843109999999999804e-01 -4.914120000000000155e-01 5.141689999999999872e-01 2.930499999999999772e-01 -1.699859999999999982e-01 -6.075260000000000105e-01 -1.097792000000000101e+00 -3.859659999999999758e-01 -1.474639000000000033e+00 -3.880830000000000113e-01 2.030000000000000138e-01 -4.082000000000000212e-02 -3.247599999999999931e-01 9.031900000000000484e-01 -9.585939999999999461e-01 7.829089999999999661e-01 4.207190000000000096e-01 6.775970000000000049e-01 3.894210000000000171e-01 -6.954519999999999591e-01 -6.224629999999999885e-01 5.070639999999999592e-01 -1.269699999999999995e-02 4.435200000000000253e-02 5.299629999999999619e-01 1.078790000000000027e-01 1.019803000000000015e+00 4.758689999999999864e-01 4.619849999999999790e-01 -8.313000000000000389e-01 6.257449999999999957e-01 6.402229999999999865e-01 8.886950000000000127e-01 -1.803417999999999966e+00 -1.203265000000000029e+00 -1.241550000000000015e-01 1.694999999999999979e-02 8.641899999999999582e-02 -1.786419999999999952e-01 7.139440000000000230e-01 1.529500000000000026e-01 -1.385470000000000035e-01 -1.309871999999999925e+00 -3.798690000000000122e-01 -4.449339999999999962e-01 -3.800810000000000022e-01 7.874000000000000790e-03 -2.640850000000000142e-01 -5.734350000000000280e-01 5.753730000000000233e-01 4.676939999999999986e-01 8.013209999999999500e-01 1.699749999999999872e-01 -5.042999999999999740e-03 -2.497169999999999945e-01 2.056999999999999940e-01 -3.133230000000000182e-01 -6.156399999999999650e-01 2.109820000000000029e-01 1.375498000000000109e+00 1.252639999999999865e-01 8.099000000000000296e-03 1.259149999999999991e-01 1.719519999999999937e-01 3.330919999999999992e-01 3.936049999999999827e-01 1.286299999999999943e-02 6.593499999999999361e-02 1.073782000000000014e+00 4.618539999999999868e-01 -8.706549999999999567e-01 7.372549999999999937e-01 3.270319999999999894e-01 -5.569589999999999819e-01 -4.872730000000000117e-01 -1.553269999999999929e-01 9.551900000000000668e-02 2.935619999999999896e-01 -5.047260000000000080e-01 5.030339999999999812e-01 4.406149999999999789e-01 1.574329999999999896e-01 -5.715000000000000080e-01
-7.038830000000000364e-01 3.101269999999999860e-01 2.598329999999999806e-01 4.334029999999999827e-01 3.587509999999999866e-01 3.617299999999999682e-02 -1.280459999999999932e-01 -7.851770000000000138e-01 -6.086699999999999749e-02 -9.014099999999999890e-02 -7.308000000000000607e-02 7.183819999999999650e-01 5.302390000000000159e-01 8.603199999999999736e-01 3.207999999999999741e-02 4.555899999999999950e-01 1.277339999999999864e-01 1.987079999999999957e-01 -4.049869999999999859e-01 5.083649999999999558e-01 3.293909999999999894e-01 1.388063999999999965e+00 -4.280999999999999805e-01 -2.938870000000000093e-01 7.805640000000000356e-01 1.414936999999999889e+00 4.675159999999999871e-01 1.715980000000000005e-01 4.904300000000000326e-02 -2.392000000000000029e-02 -5.406480000000000175e-01 -9.972200000000000508e-02 1.047600000000000059e-01 -2.482330000000000092e-01 -4.177299999999999763e-02 -7.327500000000000679e-02 -7.242450000000000276e-01 -2.257409999999999972e-01 5.003360000000000030e-01 2.086400000000000060e-02 2.834709999999999730e-01 -9.715200000000000224e-02 -5.396200000000000302e-02 4.719000000000000278e-02 -3.892510000000000137e-01 1.754699999999999871e-01 -1.033276000000000083e+00 -5.267140000000000155e-01 2.527899999999999939e-02 -1.011839999999999962e-01 -2.259770000000000112e-01 6.955600000000000671e-02 2.404900000000000093e-02 -4.318529999999999869e-01 -8.659200000000000230e-02 -2.817370000000000152e-01 -5.620000000000000551e-01 -2.971210000000000240e-01 -3.610900000000000221e-01 -1.362780000000000102e-01 1.380490000000000050e-01 2.610299999999999843e-01 -2.168399999999999841e-02 5.627780000000000005e-01 -7.397890000000000299e-01 6.230700000000000127e-02 5.765059999999999629e-01 -4.896610000000000129e-01 -3.084660000000000180e-01 -8.887730000000000352e-01 4.106960000000000055e-01 2.121560000000000112e-01 -3.460659999999999847e-01 -5.067650000000000210e-01 -1.475100000000000022e-01 -6.029520000000000435e-01 -1.163199999999999998e-02 -3.905540000000000123e-01 -1.054900000000000004e-01 -7.083540000000000392e-01 -1.283800000000000045e-02 -4.564969999999999861e-01 3.201339999999999741e-01 -6.856099999999999695e-02 7.880770000000000275e-01 5.470030000000000170e-01 4.220519999999999827e-01 -4.384009999999999851e-01 3.642340000000000022e-01 4.270900000000000252e-01
1.094350000000000045e-01 -1.230690999999999979e+00 4.879430000000000156e-01 5.637590000000000101e-01 -1.281638999999999973e+00 -4.508519999999999750e-01 -1.672549999999999870e-01 -2.352410000000000057e-01 4.053869999999999973e-01 -5.515120000000000022e-01 -1.802809999999999968e-01 -4.622729999999999895e-01 -8.617600000000000260e-02 -2.711700000000000221e-01 -1.126560000000000006e+00 -1.322589999999999932e+00 5.483050000000000423e-01 2.872819999999999818e-01 -1.142470000000000097e+00 2.963339999999999863e-01 -1.958280000000000021e-01 -9.087960000000000482e-01 2.118180000000000063e-01 1.272761000000000031e+00 1.104327999999999976e+00 -6.339569999999999927e-01 -7.628400000000000458e-02 -5.046779999999999600e-01 -9.303259999999999863e-01 1.099360000000000059e-01 3.350679999999999770e-01 -6.265800000000000536e-02 -3.128090000000000037e-01 3.485599999999999810e-02 -1.474339000000000066e+00 1.250080000000000080e-01 1.232390000000000013e-01 -3.979969999999999897e-01 -5.861819999999999808e-01 1.879369999999999929e-01 -2.190580000000000027e-01 -6.298979999999999579e-01 4.778519999999999990e-01 -1.085809999999999970e-01 -1.376999999999999969e-03 3.620459999999999789e-01 -4.740750000000000242e-01 -2.846920000000000006e-01 6.181179999999999453e-01 -1.844099999999999906e-01 -9.391000000000000042e-03 -5.459650000000000336e-01 1.332934999999999981e+00 -1.913239999999999941e-01 4.270010000000000194e-01 7.596380000000000354e-01 7.253870000000000040e-01 1.323599999999999950e-02 1.130325000000000024e+00 5.494850000000000012e-01 2.798979999999999801e-01 -2.777060000000000084e-01 -2.108309999999999906e-01 -8.457099999999999340e-02 1.256796000000000024e+00 4.737129999999999952e-01 -2.935889999999999889e-01 -5.654310000000000169e-01 3.532950000000000257e-01 6.860800000000000232e-01 3.967939999999999801e-01 -1.232729999999999937e-01 4.596169999999999978e-01 3.822530000000000094e-01 -5.233069999999999666e-01 -3.897539999999999893e-01 1.661310000000000009e-01 5.751509999999999678e-01 1.855209999999999915e-01 4.923299999999999899e-02 2.590399999999999994e-02 -4.856770000000000254e-01 1.444930000000000048e+00 -8.215430000000000232e-01 5.259890000000000398e-01 3.151199999999999835e-02 4.546169999999999933e-01 -1.094700000000000013e-02 5.205570000000000475e-01 1.605520000000000003e-01