7.145207044000000174e+00 0.000000000000000000e+00 0.000000000000000000e+00 -3.524151702000000164e+00 6.448928760000000260e+00 0.000000000000000000e+00 2.544975843000000015e+00 2.001803337000000127e+00 2.367065430399999926e+01
7.147348628999999676e+00 0.000000000000000000e+00 0.000000000000000000e+00 -3.477422890999999794e+00 6.355945916999999667e+00 0.000000000000000000e+00 3.326218180000000135e-01 3.680674070000000131e-01 2.254537241099999889e+01
7.437694696000000327e+00 0.000000000000000000e+00 0.000000000000000000e+00 -3.559608746999999962e+00 6.409162002999999608e+00 0.000000000000000000e+00 2.770411236999999804e+00 2.548926033999999952e+00 2.388725514800000127e+01
7.814138779000000312e+00 0.000000000000000000e+00 0.000000000000000000e+00 -3.623687193999999945e+00 6.462482163999999862e+00 0.000000000000000000e+00 -2.240121633999999862e+00 1.285336674000000068e+00 2.331158683299999979e+01
7.341745627999999968e+00 0.000000000000000000e+00 0.000000000000000000e+00 -3.276363261999999832e+00 6.325690403000000295e+00 0.000000000000000000e+00 1.797931550000000100e-01 1.165034979999999970e-01 2.112364754300000058e+01
7.159104990000000335e+00 0.000000000000000000e+00 0.000000000000000000e+00 -3.318714706999999819e+00 6.232456391000000373e+00 0.000000000000000000e+00 -3.416445799999999755e-01 -3.152881960000000205e-01 2.087699389899999858e+01
7.484751721000000302e+00 0.000000000000000000e+00 0.000000000000000000e+00 -3.726211871999999925e+00 6.222861585000000417e+00 0.000000000000000000e+00 1.410908228999999903e+00 -1.123259930999999989e+00 2.172284819300000080e+01
7.207362200999999580e+00 0.000000000000000000e+00 0.000000000000000000e+00 -3.609652356999999867e+00 6.463801198999999720e+00 0.000000000000000000e+00 3.702168639999999789e-01 1.968289124000000001e+00 2.130387162799999956e+01
7.204194420000000321e+00 0.000000000000000000e+00 0.000000000000000000e+00 -3.529592318000000173e+00 6.285281582999999728e+00 0.000000000000000000e+00 -4.277601540000000035e-01 -8.573105979999999793e-01 2.235245496099999940e+01
7.838075608999999666e+00 0.000000000000000000e+00 0.000000000000000000e+00 -3.663792651000000067e+00 6.485480038000000391e+00 0.000000000000000000e+00 -2.251202850999999949e+00 9.719066589999999506e-01 2.311176015599999900e+01
7.727256348000000052e+00 0.000000000000000000e+00 0.000000000000000000e+00 -3.922794625999999951e+00 6.334403197000000318e+00 0.000000000000000000e+00 -5.627638050000000058e-01 5.733244269999999698e-01 2.095139854399999990e+01
7.438836144999999789e+00 0.000000000000000000e+00 0.000000000000000000e+00 -3.655859203999999973e+00 6.300812011999999740e+00 0.000000000000000000e+00 9.908227339999999828e-01 -9.118299220000000149e-01 2.144344463099999842e+01
7.776708633000000148e+00 0.000000000000000000e+00 0.000000000000000000e+00 -3.836361533999999907e+00 6.430321006999999867e+00 0.000000000000000000e+00 -5.489101060000000087e-01 -8.687850950000000072e-01 2.037968907200000146e+01
7.394915896999999738e+00 0.000000000000000000e+00 0.000000000000000000e+00 -3.752233175000000198e+00 6.541796378999999995e+00 0.000000000000000000e+00 -9.780604699999999319e-02 4.793378099999999753e-01 2.166601921799999886e+01
7.360709765000000182e+00 0.000000000000000000e+00 0.000000000000000000e+00 -3.947978890999999990e+00 6.211006322000000246e+00 0.000000000000000000e+00 1.139565689999999937e-01 -4.830475490000000205e-01 2.078913422899999830e+01
7.227827371000000056e+00 0.000000000000000000e+00 0.000000000000000000e+00 -3.581296377999999780e+00 6.166005274999999841e+00 0.000000000000000000e+00 6.644281200000000387e-02 2.168703645999999985e+00 2.255009410199999920e+01
7.273420288999999705e+00 0.000000000000000000e+00 0.000000000000000000e+00 -3.551317457000000122e+00 6.454160668000000101e+00 0.000000000000000000e+00 2.656858280999999877e+00 2.422207145999999867e+00 2.386271227499999981e+01
7.667576025999999878e+00 0.000000000000000000e+00 0.000000000000000000e+00 -4.059408827999999581e+00 6.008433414999999833e+00 0.000000000000000000e+00 -7.346735739999999959e-01 -9.710671029999999870e-01 2.051550976100000057e+01
7.408338064999999695e+00 0.000000000000000000e+00 0.000000000000000000e+00 -3.571625464999999888e+00 6.480949536999999872e+00 0.000000000000000000e+00 4.066064759999999945e-01 -8.375319600000000198e-02 2.025294157000000084e+01
7.431753860999999795e+00 0.000000000000000000e+00 0.000000000000000000e+00 -3.488078121000000031e+00 6.204544607999999961e+00 0.000000000000000000e+00 3.220562512999999960e+00 2.682398885000000011e+00 2.402724119100000166e+01
7.457399964000000381e+00 0.000000000000000000e+00 0.000000000000000000e+00 -3.808397514999999789e+00 6.577791110999999802e+00 0.000000000000000000e+00 -2.481216930000000043e-01 5.132897389999999671e-01 2.178848339299999992e+01
7.681873289000000327e+00 0.000000000000000000e+00 0.000000000000000000e+00 -4.028800728000000220e+00 6.264145544999999871e+00 0.000000000000000000e+00 -9.514484659999999927e-01 4.987628230000000218e-01 2.123057261299999965e+01
7.192686882000000281e+00 0.000000000000000000e+00 0.000000000000000000e+00 -3.850546224999999989e+00 6.164517156999999692e+00 0.000000000000000000e+00 6.656393649999999829e-01 3.858998630000000096e-01 2.306528599399999990e+01
7.529536797999999642e+00 0.000000000000000000e+00 0.000000000000000000e+00 -3.789948375999999897e+00 6.626648321000000230e+00 0.000000000000000000e+00 -2.353733100000000161e-02 1.769766510000000126e-01 2.022493518499999965e+01
7.648719131000000004e+00 0.000000000000000000e+00 0.000000000000000000e+00 -4.001928294999999913e+00 6.125572961999999677e+00 0.000000000000000000e+00 2.127319250999999856e+00 1.497289179000000026e+00 2.362782003899999950e+01
7.689714869000000341e+00 0.000000000000000000e+00 0.000000000000000000e+00 -4.006824953999999828e+00 6.048523536000000256e+00 0.000000000000000000e+00 2.020029577999999937e+00 1.051827395000000109e+00 2.307719018299999902e+01
7.248119847999999976e+00 0.000000000000000000e+00 0.000000000000000000e+00 -3.504794877999999780e+00 5.979685267999999887e+00 0.000000000000000000e+00 -6.797884309999999708e-01 5.422817600000000293e-02 2.082263906500000061e+01
7.725649113000000234e+00 0.000000000000000000e+00 0.000000000000000000e+00 -4.025298711999999668e+00 6.041396279999999841e+00 0.000000000000000000e+00 2.034945011000000026e+00 1.178664857000000010e+00 2.327918836599999963e+01
7.034072923000000088e+00 0.000000000000000000e+00 0.000000000000000000e+00 -3.124937268000000046e+00 6.276985223999999697e+00 0.000000000000000000e+00 6.836881249999999799e-01 1.923749068000000007e+00 2.091132776599999943e+01
7.243744723999999913e+00 0.000000000000000000e+00 0.000000000000000000e+00 -3.542940992000000122e+00 6.294779304000000408e+00 0.000000000000000000e+00 -9.328545139999999680e-01 -1.706082206000000046e+00 2.265917031600000087e+01
7.144337997000000051e+00 0.000000000000000000e+00 0.000000000000000000e+00 -3.570845759000000008e+00 6.044726511000000357e+00 0.000000000000000000e+00 2.838025120000000068e-01 -6.547868519999999748e-01 2.173249870200000089e+01
7.456228728000000139e+00 0.000000000000000000e+00 0.000000000000000000e+00 -3.737450468000000026e+00 6.393125193999999567e+00 0.000000000000000000e+00 -1.454379919999999882e-01 2.591467628999999828e+00 2.171768300900000170e+01
7.414152509000000002e+00 0.000000000000000000e+00 0.000000000000000000e+00 -3.497669036000000009e+00 6.221195095999999758e+00 0.000000000000000000e+00 2.905234237999999802e+00 2.596790438999999839e+00 2.366441130700000173e+01
7.403723245000000119e+00 0.000000000000000000e+00 0.000000000000000000e+00 -3.480559951000000041e+00 6.176199910000000237e+00 0.000000000000000000e+00 3.036737771999999946e+00 2.622378073000000143e+00 2.374859692700000124e+01
7.186468252000000057e+00 0.000000000000000000e+00 0.000000000000000000e+00 -3.543087694000000010e+00 6.440308337000000272e+00 0.000000000000000000e+00 2.590056345999999898e+00 1.931985722999999933e+00 2.376961180600000034e+01
7.272134276000000064e+00 0.000000000000000000e+00 0.000000000000000000e+00 -3.630361900000000031e+00 6.523819533000000170e+00 0.000000000000000000e+00 -4.652988499999999999e-02 -4.464430189999999965e-01 2.108707607099999848e+01
7.007949722000000214e+00 0.000000000000000000e+00 0.000000000000000000e+00 -3.753097384999999786e+00 6.474338325999999810e+00 0.000000000000000000e+00 -1.675086544000000011e+00 -8.495682820000000079e-01 2.155796850600000170e+01
7.465181210999999983e+00 0.000000000000000000e+00 0.000000000000000000e+00 -3.621640337000000098e+00 6.367109177999999758e+00 0.000000000000000000e+00 1.491008574000000086e+00 -5.893554260000000156e-01 2.065775438600000058e+01
7.510829825000000071e+00 0.000000000000000000e+00 0.000000000000000000e+00 -3.781172397000000185e+00 6.400543020999999833e+00 0.000000000000000000e+00 -8.723213239999999535e-01 -8.124829030000000341e-01 1.996880220799999961e+01
7.152469858999999985e+00 0.000000000000000000e+00 0.000000000000000000e+00 -3.594099353999999913e+00 6.264414837000000347e+00 0.000000000000000000e+00 1.111179450000000068e+00 9.655560909999999497e-01 2.099588666400000037e+01
7.553430385999999608e+00 0.000000000000000000e+00 0.000000000000000000e+00 -3.789772253000000202e+00 6.436482499000000246e+00 0.000000000000000000e+00 1.479648931999999917e+00 4.198016199999999865e-01 3.222162284499999885e+01
7.440466813999999651e+00 0.000000000000000000e+00 0.000000000000000000e+00 -3.531380181999999923e+00 6.315053418999999835e+00 0.000000000000000000e+00 2.826328363000000010e+00 2.580967905000000062e+00 2.375241173399999894e+01
7.545280909999999785e+00 0.000000000000000000e+00 0.000000000000000000e+00 -4.087992364999999850e+00 6.276882785999999825e+00 0.000000000000000000e+00 -1.218778477000000082e+00 -9.899144770000000149e-01 2.100550480200000081e+01
7.235629722999999736e+00 0.000000000000000000e+00 0.000000000000000000e+00 -3.456035752000000016e+00 6.287948971999999692e+00 0.000000000000000000e+00 -6.069297660000000372e-01 -3.687870149999999958e-01 2.109439237599999828e+01
7.142934325999999778e+00 0.000000000000000000e+00 0.000000000000000000e+00 -3.270815919999999988e+00 6.409951253000000015e+00 0.000000000000000000e+00 1.471768350999999919e+00 -3.217651519999999987e-01 2.159283090899999991e+01
7.490026346999999696e+00 0.000000000000000000e+00 0.000000000000000000e+00 -3.856329139000000072e+00 6.612331686000000097e+00 0.000000000000000000e+00 -4.816290030000000000e-01 4.880550430000000217e-01 2.193798032100000128e+01
7.341684342999999835e+00 0.000000000000000000e+00 0.000000000000000000e+00 -3.725427824000000054e+00 6.527709245999999688e+00 0.000000000000000000e+00 -7.169723000000000242e-03 4.020282929999999810e-01 2.156937929900000128e+01
7.655074339999999644e+00 0.000000000000000000e+00 0.000000000000000000e+00 -3.991786584000000193e+00 6.239389078000000310e+00 0.000000000000000000e+00 -9.495997470000000495e-01 3.650772369999999989e-01 2.108327862799999863e+01
7.315376811000000146e+00 0.000000000000000000e+00 0.000000000000000000e+00 -3.600035919000000195e+00 6.066549446999999873e+00 0.000000000000000000e+00 4.726431409999999889e-01 -1.665425749999999983e-01 2.019434535599999947e+01
7.136161837999999591e+00 0.000000000000000000e+00 0.000000000000000000e+00 -3.388349503999999790e+00 6.361090577999999773e+00 0.000000000000000000e+00 2.017743745000000199e+00 -1.429895514000000034e+00 2.111700722499999827e+01
