1.800359999999999960e+00 2.251199999999999868e-01 5.549800000000000288e-01 6.650870000000000282e+00 2.304089999999999971e+00 7.919480000000000075e+00 5.381109999999999616e+00 4.795670000000000321e+00 1.012767999999999979e+01 1.328920000000000101e+00 4.522770000000000401e+00 2.318412000000000006e+01 3.949099999999999833e-01 6.011040000000000383e+00 1.870461999999999847e+01 1.223649999999999904e+00 2.603639999999999954e+00 4.089819999999999567e+00 4.944899999999999629e+00 6.022969999999999935e+00 1.645632000000000161e+01 1.657489999999999908e+00 6.848309999999999675e+00 9.999459999999999127e+00 5.007049999999999557e+00 1.920230000000000103e+00 1.565182000000000073e+01 3.771830000000000016e+00 3.556140000000000079e+00 1.975031999999999854e+01 4.879319999999999879e+00 6.277500000000000302e-01 2.673729999999999940e+00 2.783799999999999830e+00 4.374780000000000335e+00 7.426160000000000316e+00 7.555810000000000137e+00 1.786010000000000097e+00 1.538962000000000074e+01 2.492750000000000021e+00 4.188399999999999679e+00 1.041208999999999918e+01 1.120039999999999925e+00 3.665360000000000174e+00 1.984431999999999974e+01 4.734499999999999820e-01 5.708859999999999602e+00 1.597682000000000002e+01 1.909820000000000073e+00 2.187850000000000072e+00 6.619659999999999656e+00 5.481270000000000309e+00 4.895699999999999719e+00 7.452300000000000146e+00 -7.641000000000000569e-02 6.633689999999999642e+00 2.298481999999999914e+01 1.373969999999999914e+00 6.580949999999999633e+00 7.192359999999999864e+00 -1.356419999999999959e+00 6.617090000000000138e+00 3.131170000000000009e+00 3.436980000000000146e+00 3.912749999999999950e+00 1.544051999999999936e+01 4.932750000000000412e+00 3.499599999999999933e-01 4.914000000000000312e-02 -8.546700000000000408e-01 6.907169999999999810e+00 1.117186000000000057e+01 5.000169999999999781e+00 5.919520000000000337e+00 1.916432000000000002e+01 1.827590000000000048e+00 7.974929999999999630e+00 1.950972000000000151e+01 2.439599999999999991e+00 5.216709999999999958e+00 3.949329999999999785e+00 3.933920000000000083e+00 4.538240000000000052e+00 2.260241999999999862e+01 5.866679999999999673e+00 2.978829999999999867e+00 3.600789999999999935e+00 6.762599999999999945e+00 2.591579999999999995e+00 1.066236999999999924e+01
2.166030000000000122e+00 2.105599999999999972e-01 2.392499999999999905e-01 6.142079999999999984e+00 2.019870000000000054e+00 7.364440000000000097e+00 4.766060000000000407e+00 4.039670000000000094e+00 1.041230999999999973e+01 -7.329099999999999504e-01 2.963890000000000136e+00 2.207140000000000057e+01 5.067779999999999951e+00 4.205910000000000259e+00 1.762069999999999936e+01 1.671750000000000069e+00 3.114500000000000046e+00 2.337460000000000093e+00 2.663740000000000219e+00 4.248499999999999943e+00 1.466169999999999973e+01 1.700870000000000104e+00 6.218189999999999884e+00 1.173450000000000060e+01 -9.844199999999999617e-01 6.235710000000000086e+00 1.443120000000000047e+01 1.492690000000000072e+00 2.355999999999999872e+00 1.775939999999999941e+01 5.144630000000000258e+00 7.018199999999999994e-01 3.043210000000000193e+00 2.595779999999999976e+00 4.281150000000000233e+00 6.091660000000000075e+00 5.137319999999999887e+00 2.901000000000000245e-01 1.440489999999999959e+01 2.498000000000000220e+00 3.587720000000000020e+00 1.199939999999999962e+01 6.096330000000000027e+00 2.171580000000000066e+00 1.863569999999999993e+01 5.283280000000000420e+00 3.725480000000000125e+00 1.481400000000000006e+01 1.113329999999999931e+00 2.130250000000000199e+00 6.062039999999999651e+00 4.858310000000000350e+00 4.309680000000000177e+00 7.848410000000000331e+00 4.608349999999999724e+00 4.575210000000000221e+00 2.239570000000000149e+01 4.642879999999999896e+00 2.042799999999999894e-01 6.326159999999999783e+00 2.349239999999999995e+00 8.439299999999999580e-01 3.363849999999999785e+00 1.106440000000000090e+00 2.147609999999999797e+00 1.510940000000000083e+01 1.218820000000000014e+00 6.072750000000000092e+00 2.551300000000000234e-01 -1.516459999999999919e+00 6.480310000000000237e+00 1.177699999999999925e+01 2.690729999999999844e+00 4.692960000000000242e+00 1.822449999999999903e+01 -6.901199999999999557e-01 6.438469999999999693e+00 1.852830000000000155e+01 3.185909999999999798e+00 4.696320000000000050e+00 3.603450000000000042e+00 1.908579999999999943e+00 3.052540000000000031e+00 2.215459999999999852e+01 -1.081269999999999953e+00 3.177099999999999813e+00 2.574089999999999989e+00 6.060900000000000176e+00 1.461440000000000072e+00 1.020246000000000031e+01
2.407649999999999846e+00 3.210500000000000020e-01 5.237699999999999578e-01 7.066000000000000059e-02 2.566780000000000062e+00 7.773830000000000240e+00 5.495709999999999873e+00 4.990249999999999631e+00 9.973580000000000112e+00 1.478920000000000012e+00 5.151410000000000267e+00 2.357351999999999848e+01 4.554900000000000060e-01 5.972649999999999793e+00 1.894722000000000151e+01 1.381259999999999932e+00 2.691679999999999851e+00 4.049190000000000289e+00 4.911599999999999966e+00 6.571509999999999962e+00 1.687541999999999831e+01 1.475729999999999986e+00 6.998140000000000249e+00 1.009484999999999921e+01 5.515509999999999913e+00 2.292489999999999917e+00 1.592891999999999975e+01 3.900970000000000049e+00 3.901250000000000107e+00 1.984972000000000136e+01 5.241819999999999702e+00 4.047299999999999787e-01 2.997869999999999813e+00 3.292409999999999837e+00 4.992399999999999949e+00 6.874390000000000001e+00 7.948739999999999917e+00 2.575610000000000177e+00 1.627842000000000056e+01 2.877229999999999954e+00 4.613509999999999778e+00 9.733309999999999462e+00 8.645870000000000388e+00 3.710150000000000059e+00 2.036261999999999972e+01 4.427699999999999969e-01 6.346919999999999895e+00 1.624442000000000164e+01 2.377969999999999917e+00 2.092080000000000162e+00 6.606429999999999580e+00 5.939510000000000289e+00 4.762710000000000221e+00 7.049789999999999779e+00 7.326620000000000132e+00 7.184000000000000163e+00 2.372851999999999961e+01 5.422150000000000247e+00 8.619499999999999940e-01 7.185880000000000045e+00 -1.463440000000000074e+00 6.683900000000000396e+00 3.119650000000000034e+00 3.762830000000000119e+00 4.152590000000000003e+00 1.595612000000000030e+01 4.943710000000000271e+00 3.351899999999999880e-01 3.087699999999999889e-01 -1.110549999999999926e+00 7.174459999999999837e+00 1.104289999999999949e+01 5.190039999999999765e+00 6.373980000000000423e+00 1.951261999999999830e+01 1.884810000000000096e+00 8.194010000000000460e+00 1.965871999999999886e+01 3.124530000000000030e+00 5.019429999999999836e+00 4.164360000000000284e+00 4.110640000000000072e+00 5.296289999999999942e+00 2.295332000000000150e+01 6.237580000000000346e+00 2.926579999999999959e+00 3.271490000000000009e+00 6.891200000000000436e+00 2.393429999999999946e+00 1.041867000000000054e+01
-2.859729999999999883e+00 7.366939999999999600e+00 2.256960000000000122e+01 -1.440080000000000027e+00 2.553339999999999943e+00 5.529259999999999842e+00 3.406789999999999985e+00 4.901150000000000340e+00 1.293759999999999977e+01 4.419999999999999929e+00 2.905159999999999965e+00 2.182339999999999947e+01 -4.311539999999999928e+00 5.606810000000000294e+00 1.952980000000000160e+01 1.609480000000000022e+00 1.939340000000000064e+00 3.469279999999999919e+00 1.124929999999999986e+00 5.196620000000000239e+00 1.593660000000000032e+01 3.450309999999999988e+00 1.313660000000000050e+00 1.305550000000000033e+01 5.528300000000000436e-01 1.077979999999999938e+00 1.519960000000000022e+01 -5.530000000000000471e-01 3.270300000000000207e+00 1.890540000000000020e+01 1.650379999999999958e+00 6.580599999999999561e+00 2.967670000000000030e+00 3.302849999999999842e+00 4.606300000000000061e+00 5.615339999999999776e+00 3.053970000000000073e+00 1.370770000000000044e+00 1.579199999999999982e+01 7.612200000000000077e-01 5.109750000000000014e+00 1.309900000000000020e+01 4.408280000000000420e+00 3.195149999999999935e+00 1.925309999999999988e+01 3.705690000000000150e+00 5.161839999999999762e+00 1.556310000000000038e+01 1.390700000000000047e+00 2.705569999999999808e+00 6.038750000000000284e+00 -2.515870000000000051e+00 4.380230000000000068e+00 7.050699999999999967e+00 3.216140000000000221e+00 5.449690000000000367e+00 2.242370000000000019e+01 4.973969999999999558e+00 5.191200000000000259e-01 5.708380000000000010e+00 -7.770399999999999530e-01 6.441609999999999836e+00 2.256260000000000154e+00 -7.473199999999999843e-01 3.129919999999999813e+00 1.609230000000000160e+01 -1.471000000000000085e-01 7.163730000000000153e+00 2.268349999999999866e+01 6.764999999999999902e-01 8.250399999999999956e-01 1.249160000000000004e+01 8.711600000000000454e-01 5.301330000000000098e+00 1.856940000000000168e+01 -2.660010000000000208e+00 7.422869999999999635e+00 1.904619999999999891e+01 2.941590000000000149e+00 4.331089999999999662e+00 3.041370000000000129e+00 -4.798000000000000043e-01 3.470670000000000144e+00 2.174510000000000076e+01 -1.015849999999999920e+00 2.259659999999999780e+00 3.019740000000000091e+00 4.733859999999999957e+00 3.120120000000000005e+00 1.171011999999999986e+01
2.395439999999999792e+00 4.043300000000000227e-01 4.903899999999999926e-01 -5.556799999999999518e-01 1.903690000000000104e+00 7.049479999999999968e+00 -2.016700000000000159e+00 4.263449999999999740e+00 9.328200000000000713e+00 -1.126260000000000039e+00 2.459750000000000103e+00 4.110900000000000110e-01 5.472889999999999588e+00 3.872819999999999929e+00 1.774226000000000170e+01 1.292319999999999913e+00 2.886390000000000011e+00 2.989850000000000119e+00 2.875020000000000131e+00 4.206559999999999633e+00 1.441475999999999935e+01 2.053529999999999855e+00 5.879500000000000171e+00 1.033793999999999969e+01 -8.947300000000000253e-01 6.099359999999999893e+00 1.391126000000000040e+01 1.072060000000000013e+00 2.057929999999999815e+00 1.611446000000000112e+01 5.064189999999999969e+00 3.860899999999999888e-01 3.600859999999999950e+00 2.744829999999999881e+00 4.287639999999999674e+00 6.662069999999999936e+00 1.828670000000000018e+00 5.999319999999999986e+00 1.317286000000000001e+01 2.879589999999999872e+00 3.571870000000000100e+00 9.550069999999999837e+00 5.928320000000000256e+00 1.652190000000000047e+00 1.670525999999999911e+01 5.075389999999999624e+00 3.740730000000000111e+00 1.311125999999999969e+01 1.700350000000000028e+00 1.865429999999999922e+00 6.073489999999999611e+00 -2.038949999999999818e+00 4.117329999999999934e+00 6.759719999999999729e+00 -2.200019999999999865e+00 4.719960000000000377e+00 2.037966000000000122e+01 4.696290000000000298e+00 3.110399999999999832e-01 6.273019999999999818e+00 2.427119999999999944e+00 1.384799999999999920e-01 3.046949999999999825e+00 1.093860000000000054e+00 2.345880000000000187e+00 1.349395999999999951e+01 4.890189999999999593e+00 6.889300000000000423e-01 2.055076000000000036e+01 -5.376400000000000068e-01 6.185870000000000424e+00 1.037593000000000032e+01 2.580459999999999976e+00 4.144379999999999953e+00 1.708986000000000161e+01 -7.035200000000000342e-01 6.028970000000000162e+00 1.649505999999999872e+01 3.361749999999999794e+00 4.665230000000000210e+00 3.392440000000000122e+00 1.547860000000000014e+00 2.747500000000000053e+00 2.065625999999999962e+01 5.731860000000000177e+00 2.724200000000000177e+00 2.881619999999999848e+00 -5.408199999999999674e-01 2.171749999999999847e+00 9.766920000000000712e+00
2.220390000000000086e+00 3.487199999999999744e-01 4.396499999999999853e-01 -8.725500000000000478e-01 1.566170000000000062e+00 7.038479999999999848e+00 -2.228460000000000107e+00 3.882309999999999928e+00 9.247640000000000526e+00 -1.157040000000000068e+00 2.330119999999999969e+00 4.105900000000000105e-01 -2.219050000000000189e+00 3.427119999999999944e+00 1.763453000000000159e+01 1.308470000000000022e+00 2.739570000000000061e+00 2.948389999999999844e+00 2.316640000000000033e+00 3.952999999999999847e+00 1.429753000000000007e+01 1.521279999999999966e+00 5.772579999999999600e+00 1.018576000000000015e+01 -1.352910000000000057e+00 5.590469999999999828e+00 1.379663000000000039e+01 7.673900000000000166e-01 1.835050000000000070e+00 1.564433000000000007e+01 4.800910000000000011e+00 2.398899999999999921e-01 3.538199999999999790e+00 2.432659999999999823e+00 4.096529999999999561e+00 6.562599999999999767e+00 1.259810000000000096e+00 5.840019999999999989e+00 1.292103000000000002e+01 2.316819999999999879e+00 3.350979999999999848e+00 9.498290000000000788e+00 5.642350000000000421e+00 1.259719999999999951e+00 1.629112999999999900e+01 4.584559999999999746e+00 3.423099999999999810e+00 1.311622999999999983e+01 1.476399999999999935e+00 1.793739999999999890e+00 5.945380000000000109e+00 4.909270000000000245e+00 3.916409999999999947e+00 6.582099999999999618e+00 -2.573170000000000179e+00 4.318060000000000009e+00 2.008143000000000100e+01 4.416719999999999757e+00 1.745299999999999907e-01 6.254310000000000258e+00 2.243939999999999824e+00 8.037999999999999312e-02 3.027379999999999960e+00 6.218599999999999683e-01 1.806780000000000053e+00 1.328932999999999964e+01 4.339279999999999582e+00 4.458199999999999941e-01 2.011712999999999951e+01 -9.830900000000000194e-01 5.933600000000000207e+00 1.022430999999999912e+01 1.999819999999999931e+00 3.645449999999999857e+00 1.691393000000000058e+01 -1.293160000000000087e+00 5.683040000000000092e+00 1.654892999999999859e+01 3.081490000000000062e+00 4.695129999999999804e+00 3.437390000000000168e+00 9.294499999999999984e-01 2.457050000000000178e+00 2.060733000000000104e+01 5.561619999999999564e+00 2.641399999999999970e+00 2.881260000000000154e+00 -9.025100000000000344e-01 1.605069999999999997e+00 9.741479999999999251e+00
4.274569999999999759e+00 -8.688500000000000112e-01 2.137582000000000093e+01 5.518480000000000274e+00 1.267810000000000104e+00 7.557339999999999947e+00 4.987650000000000361e+00 3.492440000000000211e+00 1.034369000000000050e+01 7.850899999999999546e-01 1.051120000000000054e+00 2.083241999999999905e+01 -6.445800000000000418e-01 3.498580000000000023e+00 1.771902000000000044e+01 1.391199999999999992e+00 1.716569999999999929e+00 3.195730000000000182e+00 3.976690000000000058e+00 3.400949999999999918e+00 1.479931999999999981e+01 1.579860000000000042e+00 5.083090000000000330e+00 1.129142000000000046e+01 3.755240000000000133e+00 -6.164399999999999880e-01 1.481561999999999912e+01 2.575169999999999959e+00 1.730439999999999978e+00 1.742811999999999983e+01 5.243079999999999963e+00 -8.512000000000000122e-02 2.626430000000000042e+00 2.469129999999999825e+00 3.807300000000000129e+00 5.897739999999999760e+00 6.182579999999999742e+00 -4.718399999999999817e-01 1.378762000000000043e+01 2.351109999999999811e+00 2.776120000000000143e+00 1.095423000000000080e+01 7.503919999999999924e+00 8.825499999999999456e-01 1.778902000000000072e+01 -7.548300000000000010e-01 3.092470000000000052e+00 1.461932000000000009e+01 1.277789999999999981e+00 1.197549999999999892e+00 5.788669999999999760e+00 4.761540000000000106e+00 3.894489999999999785e+00 7.284799999999999720e+00 -7.502400000000000180e-01 3.216209999999999791e+00 2.042602000000000118e+01 6.822399999999999576e-01 5.698369999999999713e+00 6.123509999999999565e+00 -1.019709999999999894e+00 5.890830000000000233e+00 2.494349999999999845e+00 2.364549999999999930e+00 1.584880000000000067e+00 1.466552000000000078e+01 3.233639999999999848e+00 5.075040000000000440e+00 2.081672000000000011e+01 -1.175999999999999934e+00 5.628330000000000055e+00 1.111447000000000074e+01 4.009570000000000078e+00 3.896949999999999914e+00 1.740891999999999840e+01 4.338720000000000354e+00 -3.644899999999999807e-01 1.748311999999999955e+01 2.797909999999999897e+00 4.055390000000000050e+00 3.029539999999999900e+00 3.227199999999999847e+00 1.440099999999999936e+00 2.125801999999999836e+01 6.113500000000000156e+00 2.188569999999999904e+00 2.747739999999999849e+00 6.519809999999999661e+00 1.262880000000000003e+00 1.013466999999999985e+01
-1.331380000000000008e+00 6.488830000000000098e+00 4.362800000000000011e-01 5.732280000000000264e+00 2.409990000000000077e+00 6.608279999999999710e+00 4.640279999999999738e+00 4.855470000000000397e+00 9.149039999999999395e+00 -6.055300000000000127e-01 4.592410000000000103e+00 2.114662999999999826e+01 -1.472800000000000109e+00 5.484340000000000437e+00 1.687342999999999904e+01 1.766029999999999989e+00 2.576049999999999951e+00 3.345200000000000173e+00 2.532709999999999795e+00 6.014109999999999623e+00 1.489483000000000068e+01 6.833399999999999475e-01 7.210169999999999746e+00 1.011050999999999966e+01 2.941510000000000069e+00 1.828899999999999970e+00 1.436792999999999942e+01 1.734850000000000003e+00 3.367160000000000153e+00 1.790222999999999942e+01 5.272800000000000153e+00 3.900500000000000078e-01 2.605379999999999807e+00 2.247930000000000206e+00 4.824950000000000294e+00 6.806700000000000195e+00 5.168190000000000062e+00 1.343259999999999899e+00 1.316272999999999982e+01 2.154619999999999980e+00 4.917209999999999859e+00 9.704250000000000043e+00 6.317660000000000053e+00 3.419729999999999936e+00 1.785103000000000151e+01 -2.009700000000000042e+00 5.844920000000000115e+00 1.422273000000000032e+01 1.013770000000000060e+00 2.718580000000000219e+00 6.001699999999999591e+00 4.629850000000000243e+00 5.129529999999999923e+00 6.757929999999999993e+00 -2.030380000000000074e+00 6.470100000000000406e+00 2.043142999999999887e+01 5.368899999999999784e-01 7.001389999999999780e+00 6.011860000000000426e+00 -1.157329999999999970e+00 6.659169999999999590e+00 2.978159999999999918e+00 1.454020000000000090e+00 3.889920000000000044e+00 1.337622999999999962e+01 5.393799999999999706e+00 2.224120000000000097e+00 2.120043000000000077e+01 -1.648619999999999974e+00 6.908920000000000172e+00 1.046058999999999983e+01 2.484750000000000014e+00 5.825639999999999930e+00 1.741612999999999900e+01 -3.084899999999999864e-01 7.764039999999999608e+00 1.729803000000000068e+01 3.188270000000000159e+00 4.720290000000000319e+00 3.609249999999999847e+00 1.971309999999999896e+00 4.233640000000000292e+00 2.063572999999999880e+01 -1.060829999999999940e+00 2.911169999999999813e+00 2.531340000000000146e+00 5.763040000000000163e+00 2.651639999999999997e+00 9.317579999999999529e+00
2.839230000000000143e+00 3.069999999999999951e-01 1.965699999999999947e-01 -1.319399999999999906e+00 2.291360000000000063e+00 6.885189999999999699e+00 4.248420000000000307e+00 3.144979999999999887e+00 1.153511999999999915e+01 -1.070119999999999960e+00 9.492199999999999527e-01 2.130781999999999954e+01 4.182730000000000281e+00 3.723190000000000222e+00 1.899671999999999983e+01 1.602970000000000006e+00 2.119600000000000151e+00 3.845369999999999955e+00 1.760969999999999924e+00 3.891379999999999839e+00 1.533911999999999942e+01 7.736800000000000344e-01 5.331920000000000215e+00 1.126662999999999926e+01 1.550189999999999957e+00 -3.562600000000000211e-01 1.388612000000000002e+01 6.082199999999999829e-01 1.169519999999999893e+00 1.753422000000000125e+01 5.305749999999999744e+00 9.217999999999999805e-02 2.785860000000000003e+00 2.439830000000000165e+00 4.351160000000000139e+00 6.426079999999999792e+00 4.163199999999999790e+00 -4.188399999999999901e-01 1.419871999999999979e+01 2.329419999999999824e+00 3.880020000000000024e+00 1.004324000000000083e+01 5.417950000000000266e+00 8.276599999999999513e-01 1.874891999999999825e+01 3.936929999999999819e+00 3.124909999999999854e+00 1.416962000000000010e+01 1.265919999999999934e+00 1.663610000000000033e+00 6.621679999999999566e+00 -2.127470000000000194e+00 4.750180000000000291e+00 6.776390000000000136e+00 -2.372510000000000119e+00 3.336910000000000043e+00 2.186852000000000018e+01 4.277260000000000062e+00 1.189299999999999941e-01 6.692479999999999762e+00 -8.901900000000000368e-01 6.114740000000000286e+00 2.749319999999999986e+00 3.122300000000000075e-01 1.765589999999999993e+00 1.483371999999999957e+01 1.660959999999999992e+00 5.078240000000000087e+00 2.228402000000000172e+01 1.762650000000000050e+00 -2.901000000000000245e-01 1.148742000000000019e+01 1.868149999999999977e+00 3.321919999999999984e+00 1.796691999999999823e+01 -1.725510000000000099e+00 5.035210000000000186e+00 1.745581999999999923e+01 3.265120000000000022e+00 4.155739999999999768e+00 3.387399999999999967e+00 1.450900000000000079e+00 1.294329999999999981e+00 2.163151999999999830e+01 -7.601900000000000324e-01 2.192000000000000171e+00 2.843129999999999935e+00 5.160090000000000288e+00 1.189699999999999980e+00 1.020972000000000079e+01
-2.849089999999999900e+00 7.125740000000000407e+00 2.239038000000000039e+01 -1.441019999999999968e+00 2.536369999999999791e+00 5.519499999999999851e+00 3.419239999999999835e+00 4.689280000000000115e+00 1.283277999999999963e+01 4.473069999999999879e+00 2.606320000000000192e+00 2.159318000000000026e+01 -4.424210000000000420e+00 5.409729999999999706e+00 1.936537999999999826e+01 1.566610000000000058e+00 1.938039999999999985e+00 3.413930000000000131e+00 1.071329999999999893e+00 4.988929999999999865e+00 1.576528000000000063e+01 3.454270000000000174e+00 1.140309999999999935e+00 1.297827999999999982e+01 5.717400000000000260e-01 8.712699999999999889e-01 1.502998000000000012e+01 -6.128500000000000059e-01 3.013560000000000016e+00 1.875827999999999918e+01 1.632309999999999928e+00 6.604070000000000107e+00 2.948749999999999982e+00 3.279049999999999798e+00 4.559219999999999828e+00 5.616679999999999673e+00 3.050679999999999836e+00 1.147280000000000078e+00 1.562988000000000000e+01 6.717100000000000293e-01 4.913210000000000299e+00 1.296087999999999951e+01 4.490440000000000431e+00 2.854940000000000033e+00 1.907648000000000010e+01 3.720660000000000078e+00 4.925180000000000113e+00 1.540468000000000082e+01 1.414970000000000061e+00 2.620779999999999887e+00 6.079939999999999678e+00 -2.562030000000000030e+00 4.230360000000000120e+00 7.100710000000000299e+00 3.234080000000000066e+00 5.057990000000000208e+00 2.226707999999999998e+01 4.896799999999999820e+00 4.090199999999999947e-01 5.751179999999999737e+00 -8.287099999999999467e-01 6.329329999999999679e+00 2.248320000000000096e+00 -7.877499999999999503e-01 2.989910000000000068e+00 1.592287999999999926e+01 -1.470700000000000063e-01 6.941189999999999749e+00 2.253078000000000003e+01 7.330499999999999794e-01 6.559399999999999675e-01 1.231207999999999991e+01 9.191200000000000481e-01 5.233520000000000394e+00 1.836227999999999838e+01 -2.669080000000000119e+00 7.143390000000000128e+00 1.879578000000000060e+01 2.980929999999999858e+00 4.326670000000000016e+00 2.992080000000000073e+00 -5.640600000000000058e-01 3.153789999999999871e+00 2.155557999999999907e+01 -1.072380000000000111e+00 2.205270000000000064e+00 3.020970000000000155e+00 4.734700000000000131e+00 3.049339999999999939e+00 1.151868999999999943e+01
2.854130000000000056e+00 3.994300000000000073e-01 1.595999999999999919e-01 -1.607990000000000030e+00 2.516360000000000152e+00 6.554509999999999614e+00 4.696850000000000414e+00 4.065089999999999648e+00 1.054144999999999932e+01 5.604540000000000077e+00 2.756889999999999841e+00 1.933320000000000149e+01 -2.809550000000000214e+00 4.721510000000000318e+00 1.732079999999999842e+01 1.147669999999999968e+00 2.219899999999999984e+00 4.111100000000000421e+00 2.040929999999999911e+00 4.600270000000000081e+00 1.389329999999999998e+01 9.191700000000000426e-01 6.531360000000000277e+00 1.041501000000000055e+01 1.891620000000000079e+00 5.595400000000000373e-01 1.284249999999999936e+01 1.267609999999999904e+00 2.495369999999999866e+00 1.756299999999999883e+01 1.445529999999999982e+00 6.126089999999999591e+00 3.688410000000000188e+00 2.472579999999999778e+00 4.625250000000000306e+00 7.052649999999999864e+00 6.689399999999999791e-01 6.613679999999999559e+00 1.318629999999999924e+01 2.091349999999999820e+00 4.206710000000000171e+00 9.745599999999999596e+00 6.045510000000000161e+00 2.358480000000000132e+00 1.688830000000000098e+01 4.642299999999999649e+00 4.393200000000000216e+00 1.309590000000000032e+01 1.197519999999999918e+00 2.201000000000000068e+00 6.661170000000000258e+00 -2.803869999999999862e+00 4.760100000000000442e+00 6.065459999999999852e+00 4.291290000000000049e+00 4.842990000000000350e+00 2.003030000000000044e+01 8.491300000000000514e-01 6.416240000000000165e+00 6.403730000000000366e+00 2.351900000000000102e+00 1.272500000000000020e-01 2.904279999999999973e+00 5.059299999999999908e-01 2.417609999999999815e+00 1.368490000000000073e+01 4.864760000000000417e+00 7.416800000000000059e-01 2.073479999999999990e+01 -1.752639999999999976e+00 6.378059999999999619e+00 9.850479999999999237e+00 2.481770000000000032e+00 4.655230000000000423e+00 1.634230000000000160e+01 -1.850449999999999928e+00 6.767900000000000027e+00 1.629619999999999891e+01 2.653070000000000039e+00 4.051560000000000272e+00 2.722350000000000048e+00 9.212900000000000533e-01 3.002590000000000092e+00 1.999149999999999849e+01 -1.300240000000000062e+00 2.521329999999999849e+00 3.580109999999999904e+00 6.018340000000000245e+00 2.230850000000000222e+00 9.422079999999999345e+00
3.926730000000000054e+00 -7.076999999999999957e-01 2.101582000000000150e+01 5.334719999999999906e+00 1.307730000000000059e+00 7.505869999999999820e+00 4.694910000000000139e+00 3.540309999999999846e+00 1.041832999999999920e+01 2.164699999999999958e-01 1.368730000000000002e+00 2.063571999999999917e+01 -8.135400000000000409e-01 3.616249999999999964e+00 1.728631999999999991e+01 1.321029999999999927e+00 1.745039999999999925e+00 3.252759999999999874e+00 3.881040000000000045e+00 3.827170000000000183e+00 1.431062000000000012e+01 1.341399999999999926e+00 5.404090000000000060e+00 1.106362000000000023e+01 3.709700000000000220e+00 -3.543799999999999728e-01 1.467112000000000016e+01 2.073719999999999786e+00 1.901680000000000037e+00 1.722291999999999845e+01 5.238949999999999996e+00 8.748999999999999833e-02 2.775049999999999795e+00 2.144249999999999989e+00 3.733969999999999789e+00 5.692739999999999689e+00 6.274379999999999846e+00 -5.288599999999999968e-01 1.352242000000000033e+01 2.264619999999999855e+00 2.808679999999999843e+00 1.087733000000000061e+01 -1.427499999999999880e-01 1.128959999999999964e+00 1.741131999999999991e+01 -1.163929999999999909e+00 3.422489999999999810e+00 1.449901999999999980e+01 1.101580000000000004e+00 1.631499999999999950e+00 5.853469999999999729e+00 4.621579999999999799e+00 3.794290000000000163e+00 7.181589999999999918e+00 -1.174739999999999895e+00 3.754030000000000200e+00 2.011251999999999995e+01 6.255600000000000049e-01 5.777490000000000236e+00 6.101589999999999847e+00 -9.167100000000000248e-01 5.914489999999999803e+00 2.305629999999999846e+00 2.070739999999999803e+00 1.659129999999999994e+00 1.433712000000000053e+01 2.744040000000000035e+00 5.273909999999999876e+00 2.059881999999999991e+01 -1.208229999999999915e+00 5.708459999999999646e+00 1.114631999999999934e+01 3.399049999999999905e+00 4.014940000000000175e+00 1.733642000000000039e+01 3.899389999999999912e+00 -3.606999999999999790e-02 1.717711999999999861e+01 2.790129999999999999e+00 3.929530000000000189e+00 2.935560000000000169e+00 2.773719999999999963e+00 1.643129999999999979e+00 2.095741999999999905e+01 -1.071520000000000028e+00 2.438060000000000116e+00 2.780479999999999841e+00 6.014149999999999885e+00 1.273369999999999891e+00 1.017768000000000050e+01
2.130110000000000170e+00 4.598999999999999755e-01 1.561899999999999955e-01 6.393839999999999968e+00 1.293739999999999890e+00 6.920490000000000030e+00 -2.406839999999999868e+00 3.696060000000000123e+00 1.007787000000000077e+01 5.755840000000000067e+00 9.290199999999999569e-01 1.968743999999999872e+01 -2.945279999999999898e+00 3.940350000000000019e+00 1.703973999999999833e+01 6.670199999999999463e-01 1.960620000000000029e+00 3.486950000000000216e+00 2.202139999999999986e+00 4.198179999999999801e+00 1.367444000000000059e+01 1.401240000000000041e+00 5.600609999999999644e+00 1.025585000000000058e+01 2.597579999999999778e+00 -1.668000000000000038e-02 1.290363999999999933e+01 7.385099999999999998e-01 1.498199999999999976e+00 1.586393999999999949e+01 1.358379999999999921e+00 6.067929999999999602e+00 3.375710000000000210e+00 2.725600000000000023e+00 3.967589999999999950e+00 6.187030000000000030e+00 5.229119999999999990e+00 3.837300000000000155e-01 1.271174000000000071e+01 2.479299999999999837e+00 3.304800000000000182e+00 9.655179999999999652e+00 -1.780419999999999892e+00 1.581290000000000084e+00 1.642473999999999990e+01 -2.744029999999999969e+00 4.085370000000000168e+00 1.320034000000000063e+01 1.328540000000000054e+00 1.290280000000000094e+00 6.101750000000000007e+00 5.066019999999999968e+00 3.484259999999999913e+00 7.102909999999999613e+00 4.560640000000000249e+00 3.476140000000000008e+00 1.974543999999999855e+01 1.184290000000000065e+00 5.694359999999999644e+00 5.944069999999999965e+00 2.154739999999999878e+00 1.141999999999999960e-02 2.784940000000000193e+00 8.011099999999999888e-01 1.940220000000000056e+00 1.306893999999999956e+01 1.449300000000000033e-01 5.469839999999999591e+00 1.903293999999999997e+01 2.549230000000000107e+00 -4.746000000000000218e-02 9.916370000000000573e+00 1.830400000000000027e+00 3.892830000000000013e+00 1.638563999999999865e+01 2.437260000000000204e+00 -5.149299999999999988e-01 1.632664000000000115e+01 2.582419999999999938e+00 3.693439999999999834e+00 2.964469999999999938e+00 5.223499999999999810e-01 1.937529999999999974e+00 1.958894000000000091e+01 6.070319999999999716e+00 1.728739999999999943e+00 2.154739999999999878e+00 -8.974199999999999955e-01 1.228390000000000093e+00 9.494590000000000529e+00