-1.047839500000000044e+02
-1.038298544299999975e+02
-1.039053336700000045e+02
-1.054491305100000034e+02
-1.044960380400000020e+02
-1.041902528199999978e+02
-1.047781282199999993e+02
-1.047537349299999931e+02
-1.038966084999999993e+02
-1.054595718500000032e+02
-1.053942558199999979e+02
-1.037590396800000008e+02
-1.031809106999999983e+02
-1.038107508199999955e+02
-1.052321511699999945e+02
-1.045861012799999941e+02
-1.042458999400000010e+02
-1.042576580399999955e+02
-1.056169885999999991e+02
-1.048949705499999965e+02
-1.033913075399999997e+02
-1.045953085999999956e+02
-1.038429558800000052e+02
-1.063166609400000056e+02
-1.038565533900000020e+02
-1.044215874799999995e+02
-1.054211824399999955e+02
-1.041432157800000056e+02
-1.043676869699999941e+02
-1.037991434099999992e+02
-1.051642651100000023e+02
-1.045480271600000037e+02
-1.038315010900000033e+02
-1.042137661600000058e+02
-1.049926159599999949e+02
-1.034422904000000045e+02
-1.044140105599999941e+02
-1.054269775500000037e+02
-1.027754304200000064e+02
-1.046639637600000015e+02
-1.029870037000000025e+02
-1.038817682600000012e+02
-1.041147274799999991e+02
-1.044821078899999947e+02
-1.042223483399999964e+02
-1.036703660799999938e+02
-1.039408426899999967e+02
-1.050944565300000022e+02
-1.044845447000000007e+02
-1.036387045799999953e+02
