4.226323963999999656e+00 0.000000000000000000e+00 0.000000000000000000e+00 5.803674100000000280e-02 7.553706497000000297e+00 0.000000000000000000e+00 -3.808949950000000140e-01 1.663649979999999862e-01 3.001989180600000040e+01
4.183287202999999899e+00 0.000000000000000000e+00 0.000000000000000000e+00 -5.354676000000000054e-03 7.334039102000000199e+00 0.000000000000000000e+00 1.102831469999999980e-01 1.023124660000000047e-01 3.039449094500000115e+01
4.157516867000000005e+00 0.000000000000000000e+00 0.000000000000000000e+00 5.709186799999999701e-02 7.430727612000000093e+00 0.000000000000000000e+00 -3.746937949999999962e-01 1.636564749999999957e-01 2.953114990999999989e+01
4.264207339000000374e+00 0.000000000000000000e+00 0.000000000000000000e+00 1.533824229999999900e-01 7.141471415999999905e+00 0.000000000000000000e+00 8.034885050000000195e-01 1.090068460000000045e-01 3.051720713899999993e+01
4.291184825000000203e+00 0.000000000000000000e+00 0.000000000000000000e+00 5.892742299999999961e-02 7.669632278999999997e+00 0.000000000000000000e+00 -3.867405420000000205e-01 1.689181800000000011e-01 3.048060330199999868e+01
4.300257042000000141e+00 0.000000000000000000e+00 0.000000000000000000e+00 1.546791220000000022e-01 7.201845574000000028e+00 0.000000000000000000e+00 8.102812150000000546e-01 1.099283919999999998e-01 3.077520028700000054e+01
4.127228153999999982e+00 0.000000000000000000e+00 0.000000000000000000e+00 1.484553180000000028e-01 6.912065841999999627e+00 0.000000000000000000e+00 7.776780340000000180e-01 1.055052179999999978e-01 2.953690251700000147e+01
4.281648534000000339e+00 0.000000000000000000e+00 0.000000000000000000e+00 -9.225021599999999600e-02 7.097724580999999588e+00 0.000000000000000000e+00 6.852947010000000061e-01 -6.341773240000000422e-01 3.036395736800000122e+01
4.088267573999999627e+00 0.000000000000000000e+00 0.000000000000000000e+00 -5.233049000000000034e-03 7.167452961000000400e+00 0.000000000000000000e+00 1.077781639999999957e-01 9.998852900000000654e-02 2.970410726000000068e+01
4.339581023000000037e+00 0.000000000000000000e+00 0.000000000000000000e+00 -5.554734999999999881e-03 7.608049690999999726e+00 0.000000000000000000e+00 1.144034889999999971e-01 1.061350110000000013e-01 3.153007425099999850e+01
4.320026784000000397e+00 0.000000000000000000e+00 0.000000000000000000e+00 -8.722300000000000159e-05 7.482455425000000382e+00 0.000000000000000000e+00 -1.456639999999999931e-04 1.790519999999999926e-04 3.048299640400000143e+01
4.340837767000000014e+00 0.000000000000000000e+00 0.000000000000000000e+00 -9.352547699999999575e-02 7.195843068000000287e+00 0.000000000000000000e+00 6.947681700000000182e-01 -6.429441510000000193e-01 3.078370675700000092e+01
4.306898204000000341e+00 0.000000000000000000e+00 0.000000000000000000e+00 -4.846961699999999956e-02 7.538791681000000189e+00 0.000000000000000000e+00 -5.599537279999999839e-01 4.743741599999999892e-01 3.021814084600000072e+01
4.226661241999999596e+00 0.000000000000000000e+00 0.000000000000000000e+00 -4.756663400000000347e-02 7.398344958000000027e+00 0.000000000000000000e+00 -5.495218619999999721e-01 4.655366300000000068e-01 2.965518075499999995e+01
4.264675254000000137e+00 0.000000000000000000e+00 0.000000000000000000e+00 -5.458853999999999963e-03 7.476726687000000204e+00 0.000000000000000000e+00 1.124287640000000005e-01 1.043030080000000026e-01 3.098583173999999829e+01
4.067025046999999560e+00 0.000000000000000000e+00 0.000000000000000000e+00 5.584921500000000066e-02 7.268991630000000370e+00 0.000000000000000000e+00 -3.665382730000000255e-01 1.600943559999999932e-01 2.888837981300000024e+01
4.142153115000000163e+00 0.000000000000000000e+00 0.000000000000000000e+00 -5.302023999999999800e-03 7.261923802000000094e+00 0.000000000000000000e+00 1.091987380000000035e-01 1.013064310000000023e-01 3.009562318700000105e+01
4.332077142000000158e+00 0.000000000000000000e+00 0.000000000000000000e+00 -9.333672499999999539e-02 7.181320506999999687e+00 0.000000000000000000e+00 6.933659979999999834e-01 -6.416465690000000555e-01 3.072157946400000128e+01
4.382836413999999792e+00 0.000000000000000000e+00 0.000000000000000000e+00 -9.443035800000000590e-02 7.265464575000000202e+00 0.000000000000000000e+00 7.014902189999999704e-01 -6.491647900000000471e-01 3.108154650399999852e+01
4.194163903999999832e+00 0.000000000000000000e+00 0.000000000000000000e+00 5.759511199999999692e-02 7.496226839000000197e+00 0.000000000000000000e+00 -3.779965880000000222e-01 1.650990489999999977e-01 2.979145651800000039e+01
4.264175809000000150e+00 0.000000000000000000e+00 0.000000000000000000e+00 -4.798882100000000095e-02 7.464010431000000168e+00 0.000000000000000000e+00 -5.543992519999999535e-01 4.696685919999999959e-01 2.991839117299999984e+01
4.293336308999999851e+00 0.000000000000000000e+00 0.000000000000000000e+00 1.544301849999999976e-01 7.190255092000000126e+00 0.000000000000000000e+00 8.089771669999999970e-01 1.097514760000000006e-01 3.072567139799999936e+01
4.161658167999999769e+00 0.000000000000000000e+00 0.000000000000000000e+00 5.714873699999999807e-02 7.438129357000000219e+00 0.000000000000000000e+00 -3.750670280000000245e-01 1.638194940000000099e-01 2.956056587599999830e+01
4.267522379999999949e+00 0.000000000000000000e+00 0.000000000000000000e+00 1.535016640000000099e-01 7.147023274000000370e+00 0.000000000000000000e+00 8.041131459999999453e-01 1.090915890000000027e-01 3.054093154599999949e+01
4.196828058000000361e+00 0.000000000000000000e+00 0.000000000000000000e+00 -4.723089300000000296e-02 7.346124972000000142e+00 0.000000000000000000e+00 -5.456431529999999919e-01 4.622507169999999777e-01 2.944586460000000017e+01
4.276097541999999585e+00 0.000000000000000000e+00 0.000000000000000000e+00 5.872024099999999941e-02 7.642666786000000378e+00 0.000000000000000000e+00 -3.853808100000000181e-01 1.683242849999999902e-01 3.037343721199999891e+01
4.272448130999999982e+00 0.000000000000000000e+00 0.000000000000000000e+00 -9.205198900000000073e-02 7.082472995999999910e+00 0.000000000000000000e+00 6.838221399999999672e-01 -6.328146049999999745e-01 3.029871132299999914e+01
4.214663340000000424e+00 0.000000000000000000e+00 0.000000000000000000e+00 5.787661499999999931e-02 7.532865471000000035e+00 0.000000000000000000e+00 -3.798440880000000242e-01 1.659059890000000037e-01 2.993706553399999848e+01
4.293292132999999566e+00 0.000000000000000000e+00 0.000000000000000000e+00 5.895636099999999880e-02 7.673398669000000005e+00 0.000000000000000000e+00 -3.869304619999999750e-01 1.690011319999999984e-01 3.049557166399999986e+01
4.283296625000000191e+00 0.000000000000000000e+00 0.000000000000000000e+00 5.881910099999999864e-02 7.655533703999999773e+00 0.000000000000000000e+00 -3.860296229999999884e-01 1.686076689999999878e-01 3.042457283599999940e+01
4.105673305999999911e+00 0.000000000000000000e+00 0.000000000000000000e+00 -5.255329000000000424e-03 7.197968273999999944e+00 0.000000000000000000e+00 1.082370279999999990e-01 1.004142289999999937e-01 2.983057200800000075e+01
4.239881236999999636e+00 0.000000000000000000e+00 0.000000000000000000e+00 5.822291200000000166e-02 7.577937404000000043e+00 0.000000000000000000e+00 -3.821168360000000153e-01 1.668986660000000011e-01 3.011619011999999884e+01
4.286984749000000150e+00 0.000000000000000000e+00 0.000000000000000000e+00 -4.824551199999999734e-02 7.503935183000000286e+00 0.000000000000000000e+00 -5.573647149999999550e-01 4.721808350000000210e-01 3.007842368700000080e+01
4.254102631000000301e+00 0.000000000000000000e+00 0.000000000000000000e+00 -9.165672599999999393e-02 7.052061507000000340e+00 0.000000000000000000e+00 6.808858700000000042e-01 -6.300973570000000246e-01 3.016861143799999923e+01
4.248818211999999761e+00 0.000000000000000000e+00 0.000000000000000000e+00 -8.578500000000000621e-05 7.359119392000000204e+00 0.000000000000000000e+00 -1.432630000000000004e-04 1.760999999999999979e-04 2.998053409299999927e+01
4.311621675999999681e+00 0.000000000000000000e+00 0.000000000000000000e+00 -4.852277399999999768e-02 7.547059643999999956e+00 0.000000000000000000e+00 -5.605678419999999829e-01 4.748944170000000131e-01 3.025128176200000141e+01
4.338525410999999998e+00 0.000000000000000000e+00 0.000000000000000000e+00 -9.347565600000000419e-02 7.192009855000000229e+00 0.000000000000000000e+00 6.943980690000000067e-01 -6.426016559999999656e-01 3.076730833399999909e+01
4.282926465000000071e+00 0.000000000000000000e+00 0.000000000000000000e+00 -4.819984000000000074e-02 7.496831566000000002e+00 0.000000000000000000e+00 -5.568370849999999539e-01 4.717338440000000133e-01 3.004994987899999970e+01
4.341422441999999826e+00 0.000000000000000000e+00 0.000000000000000000e+00 5.961729600000000018e-02 7.759421944999999710e+00 0.000000000000000000e+00 -3.912681789999999937e-01 1.708957339999999936e-01 3.083744481500000134e+01
4.412481911999999618e+00 0.000000000000000000e+00 0.000000000000000000e+00 -9.506908499999999762e-02 7.314608165000000106e+00 0.000000000000000000e+00 7.062350979999999501e-01 -6.535557389999999689e-01 3.129178203200000041e+01
4.167901119999999793e+00 0.000000000000000000e+00 0.000000000000000000e+00 5.723446599999999773e-02 7.449287381000000430e+00 0.000000000000000000e+00 -3.756296700000000266e-01 1.640652410000000005e-01 2.960491002499999880e+01
4.292093997000000272e+00 0.000000000000000000e+00 0.000000000000000000e+00 1.543854990000000094e-01 7.188174531999999672e+00 0.000000000000000000e+00 8.087430829999999737e-01 1.097197189999999933e-01 3.071678066899999848e+01
4.271871009999999913e+00 0.000000000000000000e+00 0.000000000000000000e+00 -5.468065000000000252e-03 7.489342115000000355e+00 0.000000000000000000e+00 1.126184640000000015e-01 1.044789980000000035e-01 3.103811391500000028e+01
4.243491032999999746e+00 0.000000000000000000e+00 0.000000000000000000e+00 -4.775603500000000223e-02 7.427803812999999700e+00 0.000000000000000000e+00 -5.517099570000000286e-01 4.673903119999999745e-01 2.977326225599999887e+01
4.376898083000000383e+00 0.000000000000000000e+00 0.000000000000000000e+00 1.574358800000000003e-01 7.330199979999999726e+00 0.000000000000000000e+00 8.247223970000000515e-01 1.118875839999999983e-01 3.132368921200000145e+01
4.260827137999999792e+00 0.000000000000000000e+00 0.000000000000000000e+00 -8.602699999999999475e-05 7.379919322000000115e+00 0.000000000000000000e+00 -1.436680000000000075e-04 1.765980000000000056e-04 3.006527154100000132e+01
4.295294472000000141e+00 0.000000000000000000e+00 0.000000000000000000e+00 1.545006190000000057e-01 7.193534521000000126e+00 0.000000000000000000e+00 8.093461370000000210e-01 1.098015330000000067e-01 3.073968517699999836e+01
4.294902428000000327e+00 0.000000000000000000e+00 0.000000000000000000e+00 -9.253577799999999909e-02 7.119695670999999670e+00 0.000000000000000000e+00 6.874160379999999515e-01 -6.361404280000000355e-01 3.045794935900000056e+01
4.244665960999999932e+00 0.000000000000000000e+00 0.000000000000000000e+00 -4.776925800000000194e-02 7.429860405000000334e+00 0.000000000000000000e+00 -5.518627130000000047e-01 4.675197220000000264e-01 2.978150580200000164e+01
4.232336025999999585e+00 0.000000000000000000e+00 0.000000000000000000e+00 -4.763049800000000028e-02 7.408278095000000008e+00 0.000000000000000000e+00 -5.502596589999999566e-01 4.661616670000000018e-01 2.969499627900000149e+01
4.248174096999999705e+00 0.000000000000000000e+00 0.000000000000000000e+00 -5.437731999999999809e-03 7.447797254000000144e+00 0.000000000000000000e+00 1.119937470000000046e-01 1.038994329999999994e-01 3.086593936299999896e+01
4.278372187000000437e+00 0.000000000000000000e+00 0.000000000000000000e+00 -5.476385999999999754e-03 7.500739821999999890e+00 0.000000000000000000e+00 1.127898529999999955e-01 1.046379999999999949e-01 3.108534948400000175e+01
4.354518559999999816e+00 0.000000000000000000e+00 0.000000000000000000e+00 -9.382023600000000130e-02 7.218521832999999610e+00 0.000000000000000000e+00 6.969578349999999700e-01 -6.449704849999999823e-01 3.088072616999999909e+01
4.275151179999999940e+00 0.000000000000000000e+00 0.000000000000000000e+00 -9.211022700000000285e-02 7.086953861999999660e+00 0.000000000000000000e+00 6.842547730000000383e-01 -6.332149670000000174e-01 3.031788039999999995e+01
4.294943102999999596e+00 0.000000000000000000e+00 0.000000000000000000e+00 5.897903300000000015e-02 7.676349447999999853e+00 0.000000000000000000e+00 -3.870792550000000110e-01 1.690661210000000136e-01 3.050729863100000117e+01
4.389575308000000398e+00 0.000000000000000000e+00 0.000000000000000000e+00 -4.940006100000000205e-02 7.683509628000000369e+00 0.000000000000000000e+00 -5.707028450000000142e-01 4.834804540000000039e-01 3.079822151400000152e+01
4.345151182999999584e+00 0.000000000000000000e+00 0.000000000000000000e+00 1.562939520000000138e-01 7.277031932999999952e+00 0.000000000000000000e+00 8.187404489999999813e-01 1.110760310000000056e-01 3.109648949099999982e+01
4.291721019999999776e+00 0.000000000000000000e+00 0.000000000000000000e+00 5.893478600000000289e-02 7.670590619999999582e+00 0.000000000000000000e+00 -3.867888669999999807e-01 1.689392869999999935e-01 3.048441193300000052e+01
4.311543354000000328e+00 0.000000000000000000e+00 0.000000000000000000e+00 -9.289431500000000508e-02 7.147281474999999773e+00 0.000000000000000000e+00 6.900794839999999652e-01 -6.386052020000000384e-01 3.057596100399999983e+01
4.121571814000000167e+00 0.000000000000000000e+00 0.000000000000000000e+00 5.659826300000000282e-02 7.366483037000000067e+00 0.000000000000000000e+00 -3.714542679999999764e-01 1.622415339999999928e-01 2.927582953199999949e+01
4.175578087999999966e+00 0.000000000000000000e+00 0.000000000000000000e+00 -4.699174700000000038e-02 7.308929039999999766e+00 0.000000000000000000e+00 -5.428803760000000533e-01 4.599101850000000269e-01 2.929677016200000139e+01
4.230339397999999917e+00 0.000000000000000000e+00 0.000000000000000000e+00 -4.760802799999999668e-02 7.404783199999999788e+00 0.000000000000000000e+00 -5.500000710000000348e-01 4.659417530000000141e-01 2.968098750300000077e+01
4.352926866999999866e+00 0.000000000000000000e+00 0.000000000000000000e+00 -4.898762100000000203e-02 7.619360223000000154e+00 0.000000000000000000e+00 -5.659380630000000467e-01 4.794438890000000120e-01 3.054108803000000094e+01
4.259433292999999843e+00 0.000000000000000000e+00 0.000000000000000000e+00 1.532107020000000042e-01 7.133476093999999712e+00 0.000000000000000000e+00 8.025889499999999677e-01 1.088848060000000006e-01 3.048304122500000091e+01
4.250026803999999991e+00 0.000000000000000000e+00 0.000000000000000000e+00 -8.580900000000000463e-05 7.361212721000000236e+00 0.000000000000000000e+00 -1.433039999999999954e-04 1.761499999999999991e-04 2.998906216700000016e+01
4.214424843999999837e+00 0.000000000000000000e+00 0.000000000000000000e+00 -8.509000000000000016e-05 7.299548734000000039e+00 0.000000000000000000e+00 -1.421039999999999933e-04 1.746750000000000039e-04 2.973784742599999831e+01
4.154536525000000147e+00 0.000000000000000000e+00 0.000000000000000000e+00 5.705094100000000085e-02 7.425400845999999611e+00 0.000000000000000000e+00 -3.744251940000000167e-01 1.635391569999999906e-01 2.950998031399999988e+01
4.211252709000000038e+00 0.000000000000000000e+00 0.000000000000000000e+00 5.782977899999999782e-02 7.526769651000000394e+00 0.000000000000000000e+00 -3.795367069999999732e-01 1.657717330000000044e-01 2.991283956499999874e+01
4.302394504999999647e+00 0.000000000000000000e+00 0.000000000000000000e+00 -4.841893199999999786e-02 7.530908409000000248e+00 0.000000000000000000e+00 -5.593681879999999884e-01 4.738781089999999918e-01 3.018654190799999881e+01
4.316616577999999649e+00 0.000000000000000000e+00 0.000000000000000000e+00 -9.300361999999999518e-02 7.155691401000000340e+00 0.000000000000000000e+00 6.908914739999999499e-01 -6.393566240000000400e-01 3.061193853900000050e+01
4.296166179000000085e+00 0.000000000000000000e+00 0.000000000000000000e+00 1.545319739999999886e-01 7.194994409999999618e+00 0.000000000000000000e+00 8.095103890000000524e-01 1.098238170000000041e-01 3.074592363100000014e+01
4.312795654000000312e+00 0.000000000000000000e+00 0.000000000000000000e+00 -9.292129600000000045e-02 7.149357422999999656e+00 0.000000000000000000e+00 6.902799200000000468e-01 -6.387906869999999682e-01 3.058484187799999887e+01
4.328252304000000272e+00 0.000000000000000000e+00 0.000000000000000000e+00 -5.540233999999999784e-03 7.588188449999999641e+00 0.000000000000000000e+00 1.141048330000000027e-01 1.058579399999999976e-01 3.144776322399999913e+01
4.255428101999999768e+00 0.000000000000000000e+00 0.000000000000000000e+00 5.843640499999999682e-02 7.605724307000000017e+00 0.000000000000000000e+00 -3.835179890000000036e-01 1.675106530000000093e-01 3.022662065100000106e+01
4.082156580999999562e+00 0.000000000000000000e+00 0.000000000000000000e+00 -5.225226999999999823e-03 7.156739314000000185e+00 0.000000000000000000e+00 1.076170610000000000e-01 9.983907000000000198e-02 2.965970664499999998e+01
4.362864298999999946e+00 0.000000000000000000e+00 0.000000000000000000e+00 1.569310879999999964e-01 7.306696932999999561e+00 0.000000000000000000e+00 8.220780640000000528e-01 1.115288350000000067e-01 3.122325509699999913e+01
4.181098770000000187e+00 0.000000000000000000e+00 0.000000000000000000e+00 -5.351874999999999861e-03 7.330202393999999622e+00 0.000000000000000000e+00 1.102254540000000005e-01 1.022589420000000054e-01 3.037859046000000163e+01
4.163950529000000067e+00 0.000000000000000000e+00 0.000000000000000000e+00 -5.329925000000000114e-03 7.300138506999999777e+00 0.000000000000000000e+00 1.097733780000000048e-01 1.018395400000000062e-01 3.025399656100000101e+01
4.280983561000000215e+00 0.000000000000000000e+00 0.000000000000000000e+00 1.539858600000000022e-01 7.169567355999999947e+00 0.000000000000000000e+00 8.066495860000000295e-01 1.094356999999999969e-01 3.063726777799999823e+01
4.300970150999999575e+00 0.000000000000000000e+00 0.000000000000000000e+00 -4.840290299999999712e-02 7.528415221999999574e+00 0.000000000000000000e+00 -5.591830030000000118e-01 4.737212270000000225e-01 3.017654833199999942e+01
4.253244682000000054e+00 0.000000000000000000e+00 0.000000000000000000e+00 -4.786580299999999843e-02 7.444876594000000125e+00 0.000000000000000000e+00 -5.529780610000000207e-01 4.684646069999999773e-01 2.984169599299999831e+01
4.372074321999999569e+00 0.000000000000000000e+00 0.000000000000000000e+00 -9.419848399999999899e-02 7.247624166999999673e+00 0.000000000000000000e+00 6.997677039999999904e-01 -6.475707600000000230e-01 3.100522550799999877e+01
4.277102936000000355e+00 0.000000000000000000e+00 0.000000000000000000e+00 -9.215227900000000361e-02 7.090189304999999997e+00 0.000000000000000000e+00 6.845671599999999524e-01 -6.335040520000000397e-01 3.033172157399999946e+01
4.169405774000000342e+00 0.000000000000000000e+00 0.000000000000000000e+00 -5.336907999999999583e-03 7.309702513000000401e+00 0.000000000000000000e+00 1.099171939999999958e-01 1.019729620000000003e-01 3.029363271400000102e+01
4.367005788000000166e+00 0.000000000000000000e+00 0.000000000000000000e+00 -9.408927999999999736e-02 7.239222014000000094e+00 0.000000000000000000e+00 6.989564649999999713e-01 -6.468200330000000164e-01 3.096928122899999991e+01
4.362340770000000312e+00 0.000000000000000000e+00 0.000000000000000000e+00 1.569122569999999994e-01 7.305820155000000149e+00 0.000000000000000000e+00 8.219794179999999617e-01 1.115154520000000010e-01 3.121950841499999996e+01
4.112520639000000422e+00 0.000000000000000000e+00 0.000000000000000000e+00 -5.264094000000000412e-03 7.209972855000000180e+00 0.000000000000000000e+00 1.084175430000000051e-01 1.005816969999999977e-01 2.988032264399999960e+01
4.208977473000000025e+00 0.000000000000000000e+00 0.000000000000000000e+00 5.779853499999999811e-02 7.522703124000000408e+00 0.000000000000000000e+00 -3.793316529999999909e-01 1.656821699999999897e-01 2.989667839799999882e+01
4.304792157999999702e+00 0.000000000000000000e+00 0.000000000000000000e+00 -9.274885700000000399e-02 7.136089960999999704e+00 0.000000000000000000e+00 6.889989290000000377e-01 -6.376052469999999861e-01 3.052808387900000042e+01
4.304032308000000029e+00 0.000000000000000000e+00 0.000000000000000000e+00 1.548149169999999963e-01 7.208168191000000391e+00 0.000000000000000000e+00 8.109925740000000216e-01 1.100248999999999949e-01 3.080221833199999892e+01
4.310772700000000235e+00 0.000000000000000000e+00 0.000000000000000000e+00 -9.287771000000000221e-02 7.146003954000000213e+00 0.000000000000000000e+00 6.899561379999999966e-01 -6.384910569999999730e-01 3.057049579099999903e+01
4.202165443000000167e+00 0.000000000000000000e+00 0.000000000000000000e+00 1.511507920000000060e-01 7.037566895000000322e+00 0.000000000000000000e+00 7.917981849999999877e-01 1.074208559999999951e-01 3.007319838800000156e+01
4.319173365000000153e+00 0.000000000000000000e+00 0.000000000000000000e+00 -9.305870700000000439e-02 7.159929807000000146e+00 0.000000000000000000e+00 6.913006969999999640e-01 -6.397353230000000224e-01 3.063007037499999896e+01
4.269637812000000032e+00 0.000000000000000000e+00 0.000000000000000000e+00 1.535777560000000097e-01 7.150566088999999792e+00 0.000000000000000000e+00 8.045117489999999982e-01 1.091456660000000023e-01 3.055607084100000037e+01
4.262560651000000256e+00 0.000000000000000000e+00 0.000000000000000000e+00 -4.797064399999999978e-02 7.461183259000000234e+00 0.000000000000000000e+00 -5.541892600000000169e-01 4.694906939999999862e-01 2.990705887000000018e+01
4.281423486999999639e+00 0.000000000000000000e+00 0.000000000000000000e+00 5.879337800000000031e-02 7.652185843999999904e+00 0.000000000000000000e+00 -3.858608079999999996e-01 1.685339349999999958e-01 3.041126779400000046e+01
4.267118952999999770e+00 0.000000000000000000e+00 0.000000000000000000e+00 -9.193716899999999914e-02 7.073638771999999797e+00 0.000000000000000000e+00 6.829691839999999514e-01 -6.320252720000000268e-01 3.026091864800000053e+01
4.369167089000000281e+00 0.000000000000000000e+00 0.000000000000000000e+00 -9.413584599999999525e-02 7.242804822000000087e+00 0.000000000000000000e+00 6.993023900000000515e-01 -6.471401549999999947e-01 3.098460842400000104e+01
4.119407901999999844e+00 0.000000000000000000e+00 0.000000000000000000e+00 -8.317199999999999583e-05 7.134975672000000380e+00 0.000000000000000000e+00 -1.388999999999999881e-04 1.707359999999999997e-04 2.906738836399999926e+01
4.188346364000000044e+00 0.000000000000000000e+00 0.000000000000000000e+00 -5.361152000000000105e-03 7.342908702999999981e+00 0.000000000000000000e+00 1.104165210000000036e-01 1.024362000000000050e-01 3.043124927299999882e+01
