1.785609999999999919e+00 1.454919999999999991e+00 1.204260000000000108e+00 3.978899999999999881e+00 5.496419999999999639e+00 1.800810000000000022e+00 4.015220000000000233e+00 7.231550000000000367e+00 7.377810000000000201e+00 2.785070000000000157e+00 3.862989999999999924e+00 7.573089999999999655e+00 3.484939999999999927e+00 2.567180000000000017e+00 1.119677000000000078e+01 2.183370000000000033e+00 6.172839999999999883e+00 1.122306999999999988e+01 1.911799999999999944e+00 2.004719999999999835e+00 1.736597000000000079e+01 3.920160000000000089e+00 6.079710000000000392e+00 1.802577000000000140e+01 -6.081999999999999906e-02 7.439040000000000319e+00 2.155337000000000103e+01 2.590409999999999879e+00 3.602209999999999912e+00 2.207957000000000036e+01 3.703669999999999796e+00 3.282950000000000035e+00 2.778517000000000081e+01 1.294629999999999947e+00 6.859060000000000379e+00 2.769797000000000153e+01 2.497440000000000104e+00 5.255699999999999816e-01 3.370530000000000026e+00 6.321700000000000097e-01 3.574580000000000091e+00 3.937339999999999840e+00 5.244799999999999462e-01 2.494909999999999961e+00 6.300959999999999894e+00 1.666749999999999954e+00 5.792130000000000223e+00 6.095629999999999882e+00 3.741540000000000088e+00 3.442200000000000260e-01 2.956127000000000038e+01 1.458849999999999980e+00 4.156360000000000277e+00 2.995767000000000024e+01 3.139139999999999819e+00 2.368850000000000122e+00 1.395387000000000022e+01 3.109389999999999876e+00 4.895570000000000199e+00 1.342327000000000048e+01 3.785260000000000069e+00 6.663599999999999524e-01 1.629786999999999964e+01 2.107310000000000016e+00 4.642649999999999721e+00 1.689416999999999902e+01 1.585560000000000080e+00 1.362030000000000074e+00 9.537530000000000285e+00 -2.050000000000000086e-02 5.114469999999999850e+00 9.757839999999999847e+00 1.194190000000000085e+00 3.993800000000000128e-01 2.364906999999999826e+01 2.661499999999999977e-01 3.280060000000000198e+00 2.347237000000000151e+01 1.627569999999999961e+00 1.982210000000000027e+00 2.655276999999999887e+01 3.330400000000000027e+00 5.673689999999999678e+00 2.646677000000000035e+01 8.151999999999999524e-02 2.003169999999999895e+00 1.994517000000000095e+01 2.410359999999999836e+00 5.811880000000000379e+00 2.028327000000000169e+01
6.239700000000000246e-01 1.271849999999999925e+00 6.636999999999999844e-02 2.459649999999999892e+00 4.240020000000000344e+00 2.521110000000000184e+00 4.164310000000000400e+00 6.625729999999999897e+00 8.276419999999999888e+00 1.989020000000000010e+00 3.129160000000000164e+00 7.062389999999999723e+00 1.297539999999999916e+00 2.048090000000000188e+00 1.215978999999999921e+01 2.538629999999999942e+00 5.311049999999999827e+00 1.176638999999999946e+01 2.610939999999999817e+00 6.840790000000000148e+00 1.792039000000000115e+01 6.959600000000000231e-01 3.434680000000000177e+00 1.826489000000000118e+01 4.271199999999999997e-01 2.811329999999999885e+00 2.298329000000000022e+01 2.710949999999999971e+00 6.218370000000000175e+00 2.218559000000000125e+01 9.270399999999999752e-01 4.029539999999999900e+00 2.788938999999999879e+01 3.040630000000000166e+00 1.474999999999999922e-01 2.753558999999999912e+01 7.928399999999999892e-01 1.631129999999999969e+00 2.837759999999999838e+00 1.177900000000000058e-01 6.431989999999999874e+00 2.936729999999999841e+00 3.843679999999999986e+00 1.404130000000000100e+00 6.481569999999999609e+00 1.124980000000000091e+00 5.482090000000000352e+00 6.275760000000000005e+00 2.736130000000000173e+00 6.814899999999999736e+00 8.600000000000000006e-03 3.908099999999999907e-01 3.921899999999999942e+00 1.463500000000000079e-01 3.415649999999999853e+00 8.568099999999999605e-01 1.332518999999999920e+01 3.445300000000000029e-01 4.813159999999999883e+00 1.319069000000000003e+01 5.173900000000000166e-01 5.940649999999999764e+00 1.654529000000000138e+01 2.649430000000000174e+00 2.214630000000000098e+00 1.716368999999999900e+01 2.227619999999999933e+00 7.105660000000000309e+00 9.939030000000000697e+00 1.215610000000000079e+00 3.329299999999999926e+00 9.947229999999999350e+00 6.970699999999999674e-01 4.143999999999999906e-01 2.396088999999999913e+01 2.604109999999999925e+00 4.104040000000000354e+00 2.379999000000000109e+01 3.268159999999999954e+00 2.629010000000000069e+00 2.650289000000000073e+01 9.002799999999999692e-01 6.191580000000000084e+00 2.632548999999999850e+01 4.824800000000000200e-01 4.442610000000000170e+00 2.056328999999999851e+01 1.982720000000000038e+00 5.720600000000000129e-01 2.019659000000000049e+01
1.152730000000000032e+00 1.414749999999999952e+00 2.286810000000000009e+00 3.681939999999999991e+00 4.825999999999999623e+00 1.095509999999999984e+00 4.011129999999999640e+00 7.291559999999999597e+00 7.639420000000000321e+00 1.778070000000000039e+00 3.583140000000000214e+00 7.699650000000000105e+00 3.450009999999999799e+00 1.910740000000000105e+00 1.204909999999999926e+01 1.668420000000000014e+00 5.778159999999999741e+00 1.104809999999999981e+01 1.687619999999999898e+00 1.542059999999999986e+00 1.739979999999999905e+01 6.743000000000000382e-02 5.140100000000000335e+00 1.701569999999999894e+01 3.867399999999999949e+00 3.461799999999999877e-01 2.102009999999999934e+01 1.815229999999999899e+00 4.275450000000000195e+00 2.143319999999999936e+01 3.834499999999999797e+00 3.599359999999999893e+00 2.630570000000000164e+01 1.193489999999999940e+00 7.080180000000000362e+00 2.769640000000000057e+01 2.510260000000000158e+00 7.431790000000000340e+00 3.902880000000000127e+00 3.741969999999999796e+00 3.268110000000000070e+00 2.961219999999999963e+00 3.868009999999999948e+00 2.395910000000000206e+00 6.708009999999999806e+00 1.908879999999999910e+00 6.168820000000000192e+00 6.392680000000000362e+00 4.190579999999999750e+00 7.366220000000000212e+00 2.411699999999999955e-01 1.331499999999999906e+00 4.487350000000000172e+00 2.906180000000000163e+01 1.249619999999999953e+00 3.448469999999999924e+00 1.292530000000000001e+01 -3.201999999999999985e-02 5.888620000000000410e+00 1.313339999999999996e+01 3.932119999999999838e+00 3.293300000000000116e-01 1.597480000000000011e+01 2.181039999999999868e+00 3.686230000000000118e+00 1.594580000000000020e+01 9.828599999999999559e-01 6.426300000000000345e-01 9.916689999999999117e+00 2.945079999999999920e+00 3.920209999999999972e+00 1.005109999999999992e+01 1.836230000000000029e+00 6.769980000000000331e+00 2.245050000000000168e+01 3.413940000000000197e+00 3.946169999999999956e+00 2.332260000000000133e+01 1.698460000000000081e+00 1.969260000000000010e+00 2.606299999999999883e+01 3.362659999999999982e+00 6.189329999999999998e+00 2.628500000000000014e+01 1.976799999999999946e-01 3.051699999999999857e+00 1.965240000000000009e+01 2.073760000000000048e+00 6.701200000000000045e+00 1.911270000000000024e+01
3.753919999999999924e+00 3.070619999999999905e+00 2.145239999999999814e+00 2.298639999999999795e+00 7.060870000000000424e+00 1.956679999999999975e+00 1.071530000000000094e+00 4.609140000000000015e+00 7.360809999999999853e+00 2.937669999999999781e+00 1.006529999999999925e+00 8.107300000000000395e+00 1.522669999999999968e+00 3.761569999999999858e+00 1.211991000000000085e+01 7.367799999999999905e-01 3.134290000000000020e+00 1.661351000000000155e+01 3.813820000000000210e+00 6.713149999999999729e+00 1.893590999999999980e+01 3.300300000000000011e+00 7.097690000000000055e+00 1.194931000000000054e+01 3.764050000000000118e+00 3.890909999999999869e+00 2.261280999999999963e+01 9.750799999999999468e-01 3.442799999999999749e-01 2.272160999999999831e+01 3.300380000000000091e+00 2.554819999999999869e+00 2.864391000000000176e+01 4.084050000000000402e+00 6.088070000000000093e+00 2.735751000000000133e+01 1.349269999999999969e+00 4.653220000000000134e+00 3.005790000000000184e+00 4.003930000000000433e+00 1.110330000000000039e+00 3.832930000000000170e+00 1.327930000000000055e+00 7.021519999999999762e+00 6.375239999999999796e+00 3.444780000000000175e+00 3.059099999999999930e+00 6.412370000000000125e+00 1.386209999999999942e+00 1.087609999999999966e+00 3.051260999999999868e+01 3.856349999999999945e+00 4.900450000000000195e+00 2.989660999999999902e+01 3.607040000000000024e+00 4.872919999999999696e+00 1.339710999999999963e+01 1.184239999999999959e+00 1.283039999999999958e+00 1.334820999999999991e+01 2.818350000000000133e+00 1.526210000000000067e+00 1.679120999999999952e+01 4.807909999999999684e+00 5.469020000000000437e+00 1.683171000000000106e+01 4.358640000000000292e+00 6.271989999999999732e+00 9.521340000000000359e+00 1.352179999999999938e+00 2.803809999999999913e+00 9.450730000000000075e+00 2.546310000000000073e+00 6.274140000000000050e+00 2.418280999999999992e+01 1.821720000000000006e+00 2.428409999999999958e+00 2.393340999999999852e+01 4.501890000000000391e+00 1.214129999999999932e+00 2.636890999999999963e+01 2.230510000000000215e+00 4.296219999999999928e+00 2.661961000000000155e+01 1.466669999999999918e+00 1.117269999999999985e+00 1.998701000000000150e+01 3.440440000000000165e+00 4.239770000000000039e+00 1.994700999999999880e+01
1.468860000000000054e+00 7.580500000000000016e-01 1.676800000000000068e+00 2.724900000000000100e-01 4.916789999999999772e+00 1.528580000000000050e+00 3.509479999999999933e+00 8.875199999999999756e-01 8.012109999999999843e+00 2.183570000000000011e+00 4.655499999999999972e+00 7.496400000000000396e+00 7.033399999999999652e-01 3.205880000000000063e+00 1.151792999999999978e+01 3.386839999999999851e+00 6.631190000000000140e+00 1.206863000000000063e+01 1.627729999999999899e+00 1.287800000000000056e+00 1.815453000000000117e+01 3.493990000000000151e+00 5.554560000000000386e+00 1.583952999999999989e+01 4.046030000000000015e+00 7.589739999999999931e+00 2.119103000000000137e+01 1.473559999999999981e+00 3.371340000000000003e+00 2.218112999999999957e+01 6.000400000000000178e-01 2.102669999999999817e+00 2.844853000000000165e+01 2.330649999999999888e+00 5.825580000000000425e+00 2.812782999999999944e+01 4.131269999999999776e+00 6.902849999999999930e+00 3.326029999999999820e+00 2.193719999999999892e+00 5.073050000000000281e+00 3.299630000000000063e+00 4.959999999999999999e-03 3.281229999999999869e+00 6.734409999999999563e+00 1.373860000000000081e+00 7.324080000000000368e+00 7.145579999999999821e+00 2.248799999999999966e-01 7.028220000000000134e+00 3.003913000000000011e+01 2.070609999999999840e+00 3.056550000000000100e+00 3.238800000000000012e-01 3.757280000000000175e+00 2.782379999999999853e+00 1.369073000000000029e+01 1.540019999999999945e+00 5.808729999999999727e+00 1.369632999999999967e+01 3.592150000000000176e+00 7.947300000000000475e-01 1.683173000000000030e+01 9.317400000000000126e-01 5.072980000000000267e+00 1.755632999999999910e+01 2.870559999999999778e+00 1.654009999999999980e+00 1.040515000000000079e+01 1.182069999999999954e+00 5.364289999999999559e+00 1.014591000000000065e+01 3.408539999999999903e+00 1.870699999999999863e-01 2.361233000000000004e+01 4.909899999999999820e-01 5.586109999999999687e+00 2.375022999999999840e+01 2.621680000000000010e+00 7.361299999999999510e-01 2.745003000000000171e+01 1.337000000000000133e-01 4.376529999999999809e+00 2.704513000000000034e+01 3.816899999999999959e+00 2.743570000000000064e+00 2.054872999999999905e+01 1.683000000000000052e+00 6.904930000000000234e+00 1.989713000000000065e+01
9.966699999999999449e-01 1.199410000000000087e+00 1.902940000000000076e+00 3.644969999999999821e+00 4.647759999999999891e+00 1.811330000000000107e+00 7.439599999999999547e-01 5.915659999999999918e+00 8.040599999999999525e+00 3.655289999999999928e+00 2.465510000000000090e+00 8.067819999999999325e+00 2.951369999999999827e+00 2.744639999999999969e+00 1.174550999999999945e+01 4.621710000000000207e+00 4.250070000000000014e+00 1.560641000000000034e+01 5.823300000000000143e-01 1.418899999999999884e-01 1.935461000000000098e+01 1.790969999999999951e+00 7.906900000000000039e-01 1.532751000000000019e+01 4.130950000000000344e+00 5.047690000000000232e+00 2.258341000000000065e+01 2.458460000000000090e+00 1.137010000000000076e+00 2.283771000000000129e+01 4.053969999999999629e+00 1.466699999999999948e-01 2.853941000000000017e+01 1.139909999999999979e+00 3.679670000000000218e+00 2.796921000000000035e+01 1.294119999999999937e+00 3.605510000000000215e+00 3.065139999999999976e+00 3.159040000000000070e+00 7.605000000000000648e-02 2.651580000000000048e+00 3.867599999999999927e-01 1.192350000000000021e+00 6.160009999999999764e+00 2.838740000000000041e+00 4.779499999999999638e+00 6.935419999999999696e+00 2.163229999999999986e+00 1.266310000000000047e+00 3.014220999999999862e+01 3.735799999999999788e+00 4.550679999999999836e+00 3.014370999999999867e+01 6.041100000000000358e-01 4.283739999999999881e+00 1.302960999999999991e+01 3.237699999999999800e+00 4.882500000000000173e-01 1.336251000000000033e+01 2.539890000000000203e+00 3.288409999999999833e+00 1.694801000000000002e+01 7.367500000000000160e-01 6.648620000000000196e+00 1.668511000000000166e+01 2.913889999999999869e+00 6.569800000000000084e-01 9.858869999999999578e+00 4.540000000000000147e-01 4.027079999999999771e+00 9.944919999999999760e+00 4.759660000000000224e+00 2.520700000000000163e-01 2.386221000000000103e+01 2.236089999999999911e+00 3.860930000000000195e+00 2.373121000000000080e+01 1.744960000000000067e+00 6.057979999999999698e+00 2.689010999999999996e+01 3.302329999999999988e+00 2.409390000000000143e+00 2.707360999999999862e+01 2.308069999999999844e+00 1.597190000000000110e+00 2.028181000000000012e+01 3.682209999999999983e+00 5.344590000000000174e+00 1.966391000000000133e+01
1.764780000000000015e+00 1.258389999999999898e+00 1.681680000000000064e+00 4.178630000000000067e+00 4.562179999999999680e+00 1.448800000000000088e+00 3.794500000000000095e-01 6.701649999999999885e+00 7.324910000000000032e+00 2.131909999999999972e+00 3.071610000000000174e+00 7.487790000000000390e+00 7.071800000000000308e-01 2.251630000000000020e+00 1.137045999999999957e+01 2.719749999999999890e+00 5.804999999999999716e+00 1.126266000000000034e+01 2.473990000000000133e+00 1.127839999999999954e+00 1.700196000000000041e+01 6.332200000000000051e-01 4.651449999999999640e+00 1.750975999999999999e+01 6.329200000000000381e-01 1.968000000000000027e-01 2.120975999999999928e+01 2.893349999999999866e+00 3.593269999999999964e+00 2.104316000000000031e+01 1.006590000000000096e+00 2.493360000000000021e+00 2.717025999999999897e+01 2.509679999999999911e+00 6.056809999999999583e+00 2.721155999999999864e+01 1.909119999999999928e+00 8.769299999999999873e-01 4.164679999999999715e+00 5.510599999999999943e-01 5.080440000000000289e+00 3.853299999999999947e+00 4.282829999999999693e+00 2.173509999999999831e+00 5.920810000000000350e+00 2.504280000000000062e+00 5.471650000000000347e+00 6.193889999999999674e+00 4.890310000000000379e+00 3.234899999999999998e-01 2.951246000000000080e+01 2.365590000000000082e+00 3.553679999999999950e+00 2.466000000000000136e-02 4.047900000000000276e+00 1.959060000000000024e+00 1.372495999999999938e+01 2.190780000000000172e+00 5.426319999999999588e+00 1.368465999999999916e+01 4.626540000000000319e+00 6.773609999999999687e+00 1.577486000000000033e+01 2.421279999999999877e+00 3.562479999999999869e+00 1.563555999999999990e+01 2.768810000000000215e+00 1.346240000000000103e+00 9.738970000000000127e+00 5.233900000000000219e-01 4.672760000000000247e+00 9.859560000000000102e+00 1.098850000000000104e+00 5.143400000000000194e-01 2.363695999999999842e+01 2.363820000000000032e+00 3.888450000000000184e+00 2.345365999999999929e+01 3.065640000000000143e+00 1.530059999999999976e+00 2.573666000000000054e+01 4.645310000000000272e+00 4.939189999999999969e+00 2.585345999999999833e+01 4.653979999999999784e+00 2.293839999999999879e+00 1.942625999999999920e+01 2.515260000000000051e+00 5.734409999999999563e+00 1.939826000000000050e+01
1.742199999999999971e+00 1.244210000000000038e+00 2.226080000000000059e+00 4.129780000000000229e+00 4.690599999999999881e+00 1.704960000000000031e+00 4.126380000000000159e+00 6.754500000000000171e+00 7.254150000000000098e+00 2.882839999999999847e+00 3.039569999999999883e+00 7.890839999999999854e+00 4.294940000000000424e+00 2.371529999999999916e+00 1.137442000000000064e+01 1.696460000000000079e+00 5.938069999999999737e+00 1.191741999999999990e+01 2.118069999999999897e+00 6.831800000000000095e-01 1.750581999999999994e+01 4.041669999999999874e+00 4.016720000000000290e+00 1.795682000000000045e+01 7.579700000000000326e-01 -1.458500000000000074e-01 2.128562000000000154e+01 2.729779999999999873e+00 3.408469999999999889e+00 2.173171999999999926e+01 4.840550000000000352e+00 1.407890000000000086e+00 2.797281999999999869e+01 3.260050000000000114e+00 5.450820000000000221e+00 2.745532000000000039e+01 3.290599999999999969e+00 3.460900000000000087e-01 3.867319999999999869e+00 3.695899999999999963e+00 4.416430000000000078e+00 4.166690000000000005e+00 8.633100000000000218e-01 2.178279999999999994e+00 6.283009999999999984e+00 1.845499999999999918e+00 5.200389999999999624e+00 6.569110000000000227e+00 4.266899999999999693e+00 6.158000000000000279e-02 5.582700000000000440e-01 1.948669999999999902e+00 3.365549999999999820e+00 5.956700000000000328e-01 1.279889999999999972e+00 1.606070000000000109e+00 1.343002000000000073e+01 3.911399999999999988e+00 -7.360999999999999488e-02 1.329401999999999973e+01 4.170950000000000379e+00 6.343689999999999607e+00 1.651101999999999848e+01 1.993260000000000032e+00 3.102809999999999846e+00 1.650072000000000116e+01 2.783430000000000071e+00 9.680900000000000061e-01 9.678069999999999951e+00 4.149750000000000050e+00 4.721709999999999852e+00 1.015759000000000079e+01 4.395220000000000127e+00 -1.231000000000000011e-01 2.361962000000000117e+01 1.140549999999999953e+00 3.136200000000000099e+00 2.401312000000000069e+01 2.820429999999999993e+00 6.378300000000000081e-01 2.641341999999999857e+01 1.017400000000000082e+00 3.965840000000000032e+00 2.707171999999999912e+01 4.568999999999999728e-01 2.473660000000000192e+00 2.017261999999999844e+01 2.987350000000000172e+00 5.875309999999999810e+00 2.009011999999999887e+01
1.422439999999999927e+00 1.536580000000000057e+00 1.359159999999999924e+00 3.901539999999999786e+00 4.955390000000000406e+00 1.059160000000000101e+00 3.730599999999999916e+00 6.996760000000000090e+00 7.379900000000000126e+00 2.295240000000000169e+00 3.821880000000000166e+00 7.863879999999999981e+00 1.565699999999999870e-01 1.979149999999999965e+00 1.128009999999999913e+01 2.618619999999999948e+00 5.880040000000000155e+00 1.107789999999999964e+01 1.992660000000000098e+00 7.504100000000000215e-01 1.719889999999999830e+01 4.058200000000000141e-01 4.693699999999999761e+00 1.751020000000000110e+01 7.461999999999999744e-01 5.098700000000000454e-01 2.143619999999999948e+01 1.821890000000000009e+00 4.278579999999999828e+00 2.132920000000000016e+01 3.934300000000000019e-01 2.652759999999999785e+00 2.714620000000000033e+01 2.154180000000000206e+00 6.492989999999999817e+00 2.754939999999999856e+01 2.344440000000000079e+00 3.808500000000000218e-01 3.383230000000000182e+00 4.027820000000000178e+00 5.689799999999999969e+00 3.598629999999999995e+00 3.176599999999999979e-01 2.318839999999999790e+00 6.691690000000000360e+00 1.660579999999999945e+00 5.594330000000000247e+00 6.086540000000000283e+00 3.511410000000000142e+00 3.151399999999999757e-01 2.949950000000000117e+01 1.803719999999999990e+00 3.925650000000000084e+00 2.940490000000000137e+01 2.985790000000000166e+00 1.832100000000000062e+00 1.351980000000000004e+01 1.935640000000000027e+00 6.500630000000000130e+00 1.357220000000000049e+01 4.092550000000000132e+00 6.678619999999999557e+00 1.583600000000000030e+01 2.361689999999999845e+00 3.189360000000000195e+00 1.642500000000000071e+01 2.181470000000000020e+00 1.049209999999999976e+00 9.717800000000000438e+00 4.682100000000000151e-01 4.482400000000000162e+00 1.008869999999999933e+01 4.057499999999999996e-01 6.649799999999999933e+00 2.354879999999999995e+01 1.868449999999999944e+00 3.283420000000000005e+00 2.380720000000000169e+01 2.283630000000000049e+00 1.365939999999999932e+00 2.589300000000000068e+01 4.125189999999999912e+00 5.127250000000000085e+00 2.644519999999999982e+01 4.068279999999999674e+00 2.872409999999999908e+00 2.000929999999999964e+01 2.592970000000000219e+00 6.438180000000000014e+00 2.003960000000000008e+01
1.438819999999999988e+00 1.126829999999999998e+00 1.170460000000000056e+00 3.299770000000000092e+00 5.160689999999999777e+00 2.330140000000000100e+00 1.550929999999999920e+00 2.147000000000000020e-01 7.933670000000000222e+00 4.184090000000000309e+00 4.167189999999999728e+00 7.730599999999999916e+00 1.098710000000000075e+00 9.931299999999999573e-01 1.316417999999999999e+01 2.721400000000000041e+00 5.593009999999999593e+00 1.106353999999999971e+01 1.949859999999999927e+00 2.451999999999999957e+00 1.857857999999999876e+01 4.311350000000000016e+00 6.623910000000000409e+00 1.785948000000000135e+01 3.163170000000000037e+00 4.779700000000000060e-01 2.263787999999999911e+01 1.236580000000000013e+00 4.535859999999999559e+00 2.186768000000000001e+01 3.837110000000000021e+00 1.397010000000000085e+00 2.797467999999999932e+01 1.903180000000000094e+00 5.461420000000000385e+00 2.989358000000000004e+01 1.427810000000000024e+00 2.026900000000000091e-01 3.729629999999999779e+00 1.319090000000000096e+00 5.454819999999999780e+00 4.071320000000000050e+00 1.629250000000000087e+00 2.614749999999999908e+00 6.348930000000000184e+00 3.582390000000000185e+00 6.644759999999999778e+00 6.615240000000000009e+00 3.657160000000000188e+00 7.024040000000000283e+00 3.487799999999999789e-01 1.512869999999999937e+00 3.770210000000000061e+00 7.018100000000000449e-01 3.452170000000000183e+00 2.981590000000000185e+00 1.331858000000000075e+01 7.404300000000000326e-01 5.985360000000000014e+00 1.327267999999999937e+01 4.258070000000000022e+00 1.534119999999999928e+00 1.721127999999999858e+01 2.089789999999999814e+00 5.136040000000000383e+00 1.744658000000000087e+01 2.426060000000000105e+00 4.307900000000000063e-01 1.051055000000000028e+01 6.751999999999999669e-02 3.905359999999999943e+00 1.010507999999999917e+01 1.752040000000000042e+00 3.358709999999999862e+00 2.436177999999999955e+01 1.902399999999999924e-01 1.830119999999999969e+00 2.518357999999999919e+01 1.762199999999999989e+00 8.617299999999999960e-01 2.939038000000000039e+01 4.232630000000000337e+00 4.216779999999999973e+00 2.876998000000000033e+01 3.185179999999999900e+00 2.931169999999999831e+00 2.104878000000000071e+01 8.881799999999999695e-01 7.296509999999999607e+00 2.119358000000000075e+01
1.899359999999999937e+00 7.048600000000000421e-01 2.182920000000000194e+00 4.279589999999999783e+00 4.461940000000000239e+00 1.422909999999999897e+00 2.361999999999999933e-01 5.899149999999999672e+00 7.809470000000000134e+00 2.024039999999999839e+00 2.219180000000000152e+00 7.859420000000000073e+00 4.074130000000000251e+00 4.022630000000000372e+00 1.112003999999999948e+01 2.051169999999999938e+00 5.668400000000000105e-01 1.237213999999999992e+01 1.833040000000000003e+00 7.405949999999999811e+00 1.798903999999999925e+01 3.656000000000000139e+00 3.669989999999999863e+00 1.800753999999999877e+01 3.981889999999999930e+00 4.092100000000000182e-01 2.181904000000000110e+01 1.512629999999999919e+00 3.869060000000000166e+00 2.197373999999999938e+01 1.524319999999999897e+00 4.154219999999999580e+00 2.765073999999999899e+01 3.513539999999999885e+00 8.511000000000000509e-02 2.803773999999999944e+01 1.611580000000000013e+00 5.487860000000000404e+00 3.131949999999999790e+00 4.230019999999999669e+00 2.090500000000000025e+00 3.045110000000000205e+00 4.262730000000000352e+00 9.683800000000000185e-01 6.747379999999999711e+00 2.419080000000000119e+00 4.692630000000000301e+00 6.601840000000000153e+00 3.672610000000000152e+00 5.338600000000000012e-01 1.490000000000000005e-02 2.098479999999999901e+00 4.460849999999999760e+00 3.033304000000000045e+01 3.517370000000000108e+00 2.751389999999999780e+00 1.333314000000000021e+01 4.147079999999999878e+00 3.606699999999999906e-01 1.391704000000000008e+01 3.940380000000000216e+00 6.216479999999999784e+00 1.695843999999999951e+01 1.541109999999999980e+00 2.271160000000000068e+00 1.697754000000000119e+01 1.980599999999999916e+00 2.586240000000000094e+00 1.034904000000000046e+01 4.166990000000000194e+00 6.483240000000000336e+00 1.036361999999999917e+01 1.940649999999999986e+00 1.220280000000000031e+00 2.305583999999999989e+01 3.744000000000000217e+00 4.971890000000000143e+00 2.355443999999999960e+01 3.630720000000000169e+00 2.803560000000000052e+00 2.671913999999999945e+01 1.405750000000000055e+00 6.610549999999999926e+00 2.654083999999999932e+01 3.607289999999999885e+00 2.758570000000000189e+00 2.037884000000000029e+01 1.577339999999999964e+00 6.254470000000000418e+00 2.060163999999999973e+01
2.053030000000000133e+00 1.071339999999999959e+00 2.704610000000000181e+00 6.148599999999999621e-01 4.856679999999999886e+00 1.551160000000000094e+00 4.241889999999999716e+00 6.499699999999999811e+00 8.504830000000000112e+00 1.500250000000000083e+00 3.049519999999999786e+00 6.193030000000000257e+00 4.292880000000000251e+00 2.132769999999999833e+00 1.167098999999999975e+01 1.483489999999999975e+00 5.433500000000000441e+00 1.210669000000000040e+01 3.479900000000000215e-01 6.576019999999999754e+00 1.792608999999999853e+01 2.833730000000000082e+00 2.825689999999999813e+00 1.794159000000000148e+01 1.106870000000000021e+00 1.504399999999999959e+00 2.145709000000000088e+01 3.583670000000000133e+00 5.892120000000000246e+00 2.263719000000000037e+01 1.326869999999999994e+00 1.968480000000000008e+00 2.868338999999999928e+01 3.399369999999999781e+00 5.346980000000000288e+00 2.873149000000000086e+01 4.136879999999999669e+00 6.732709999999999972e+00 3.570930000000000160e+00 1.888959999999999972e+00 3.560119999999999951e+00 3.555349999999999788e+00 3.959659999999999958e+00 1.431589999999999918e+00 6.653139999999999610e+00 2.007719999999999949e+00 5.514669999999999739e+00 6.793980000000000352e+00 1.255600000000000049e+00 6.876459999999999795e+00 3.069399999999999906e-01 3.268019999999999925e+00 3.234080000000000066e+00 2.730099999999999749e-01 2.103759999999999852e+00 2.942219999999999835e+00 1.314719000000000015e+01 3.859189999999999898e+00 6.860420000000000407e+00 1.326539000000000001e+01 2.566310000000000091e+00 5.328739999999999810e+00 1.687899000000000171e+01 6.794499999999999984e-01 1.648179999999999978e+00 1.670439000000000007e+01 2.439709999999999823e+00 3.622900000000000009e-01 1.006479999999999997e+01 9.878500000000000059e-01 4.166330000000000311e+00 9.742580000000000240e+00 1.156660000000000021e+00 2.107930000000000081e+00 2.381278999999999968e+01 1.373350000000000071e+00 4.646209999999999951e+00 2.375508999999999915e+01 3.551089999999999858e+00 6.303699999999999859e-01 2.753169000000000111e+01 1.149839999999999973e+00 4.360050000000000203e+00 2.740008999999999872e+01 3.237029999999999852e+00 2.805219999999999825e+00 2.062078999999999951e+01 1.362279999999999935e+00 6.428309999999999746e+00 2.024519000000000091e+01
2.274859999999999882e+00 8.111800000000000122e-01 1.410679999999999934e+00 8.226499999999999924e-01 4.484820000000000029e+00 1.734410000000000007e+00 1.446600000000000108e-01 1.115310000000000024e+00 7.039959999999999773e+00 2.271209999999999951e+00 4.152190000000000047e+00 7.554560000000000386e+00 2.642250000000000210e+00 3.476989999999999803e+00 1.159220999999999968e+01 1.518680000000000030e+00 7.104009999999999714e+00 1.038854000000000077e+01 9.256400000000000183e-01 6.848399999999999821e+00 1.756580999999999904e+01 3.409539999999999793e+00 2.888040000000000163e+00 1.865230999999999995e+01 4.592100000000000071e-01 4.685599999999999765e-01 2.389711000000000141e+01 3.117999999999999883e+00 5.865660000000000096e+00 2.096670999999999907e+01 -1.580600000000000060e-01 3.034440000000000026e+00 2.687070999999999898e+01 2.647569999999999979e+00 6.711179999999999701e+00 2.843930999999999898e+01 2.215800000000000214e+00 2.460409999999999986e+00 3.111149999999999860e+00 6.983300000000000063e-01 6.921719999999999651e+00 2.676140000000000185e+00 -3.461000000000000187e-02 3.918410000000000171e+00 5.918050000000000033e+00 2.265089999999999826e+00 7.382609999999999673e+00 6.390399999999999636e+00 3.291990000000000194e+00 1.373979999999999979e+00 2.963991000000000042e+01 2.918620000000000214e+00 4.340309999999999668e+00 1.778399999999999981e-01 1.987479999999999913e+00 1.499020000000000019e+00 1.348110999999999926e+01 1.252070000000000016e+00 6.619860000000000078e+00 1.324850999999999956e+01 3.025419999999999998e+00 5.317549999999999777e+00 1.717260999999999882e+01 1.374430000000000041e+00 1.928390000000000049e+00 1.713740999999999914e+01 7.524100000000000232e-01 2.137989999999999835e+00 9.398690000000000211e+00 3.384749999999999925e+00 5.487930000000000419e+00 9.526519999999999655e+00 2.522639999999999993e+00 6.459810000000000052e+00 2.371530999999999878e+01 -3.324900000000000078e-01 3.466279999999999806e+00 2.441581000000000046e+01 2.082819999999999894e+00 1.495659999999999989e+00 2.643480999999999881e+01 4.077600000000000113e-01 5.792290000000000383e+00 2.694860999999999862e+01 3.513520000000000199e+00 3.359620000000000051e+00 2.136920999999999893e+01 1.026639999999999997e+00 7.414430000000000298e+00 2.036071000000000097e+01