-6.825170817999999429e+01
-6.827897862000000373e+01
-6.936471595000000434e+01
-6.966669616000000076e+01
-6.888908723999999495e+01
-6.954717985999999996e+01
-6.793293869999999401e+01
-6.916411800000000198e+01
-6.851758196999999484e+01
-6.963838176999999519e+01
-6.825730797999999311e+01
-6.905796775999999682e+01
-6.923684937999999534e+01
-6.829009218999999575e+01
-6.759329459999999301e+01
-6.917132580000000530e+01
-6.817933111000000679e+01
-6.915943880000000377e+01
-6.941843916000000547e+01
-6.988521314999999845e+01
-7.025540685999999369e+01
-6.923121430000000487e+01
-6.876205222999999478e+01
-6.912004228000000694e+01
-6.910702354999999386e+01
-6.903180591000000277e+01
-6.823901601000000028e+01
-6.781911386000000164e+01
-6.960312324999999589e+01
-6.735178983999999502e+01
-6.957703481000000068e+01
-6.924245170000000371e+01
-6.798993559000000175e+01
-6.804701853000000256e+01
-6.959982191000000284e+01
-6.898791622000000245e+01
-6.866446023000000309e+01
-7.007425265999999908e+01
-6.941696763000000203e+01
-6.914817367000000559e+01
-6.911140478999999459e+01
-6.930446906000000240e+01
-6.806389477999999826e+01
-6.880600051999999778e+01
-6.769760623000000521e+01
-6.913520196000000340e+01
-6.919628790000000151e+01
-6.986006419999999650e+01
-6.896240951000000052e+01
-6.848705083000000116e+01
-6.843145092000000318e+01
-6.903093072000000063e+01
-6.977270540000000665e+01
-6.744603474000000176e+01
-6.950994665999999711e+01
-6.886855180999999959e+01
-6.913042274000000020e+01
-6.889056761999999878e+01
-6.818536186000000043e+01
-6.806142201999999486e+01
-6.935360970000000691e+01
-6.894603381000000297e+01
-6.940480825999999581e+01
-6.976237046999999336e+01
-6.944652166999999565e+01
-6.877408488000000375e+01
-6.959466326000000436e+01
-6.928879591999999832e+01
-6.909279834999999537e+01
-6.924738768999999650e+01
-6.867008765999999298e+01
-6.871670353000000375e+01
-6.861868284000000529e+01
-6.863805655999999544e+01
-6.803223930000000053e+01
-6.967652714000000458e+01
-6.970912995000000478e+01
-6.822863168000000655e+01
-6.909956631999999388e+01
-6.817113127000000361e+01
-6.898256713000000673e+01
-6.896968617000000279e+01
-6.965113117999999304e+01
-6.861627416999999696e+01
-6.870504904999999951e+01
-6.790403526999999428e+01
-6.884547376000000440e+01
-6.892706776999999363e+01
-7.001137323999999751e+01
-6.828072380999999780e+01
-6.906648511999999585e+01
-6.889230009000000621e+01
-6.777967347999999959e+01
-6.811632539000000008e+01
-6.972823870000000568e+01
-6.913194219000000373e+01
-6.653216684999999586e+01
-6.688660412000000122e+01
-6.996056817000000194e+01
-6.943896607000000643e+01
