9.081029999999999935e-01 -3.085870000000000002e-01 1.598487999999999909e+00 1.629186999999999941e+00 8.739419999999999966e-01 7.796330000000000204e-01 1.337440000000000018e-01 -2.838680000000000092e-01 -2.777200000000000155e-02 -9.821000000000000563e-02 -4.257420000000000093e-01 1.356618000000000102e+00 9.984629999999999894e-01 -2.743450000000000055e-01 2.289200000000000124e-01 5.942830000000000057e-01 -5.481190000000000229e-01 7.728500000000000369e-01 5.969139999999999446e-01 2.432330000000000048e-01 -6.302699999999999969e-02 2.598110000000000142e-01 1.983870000000000078e-01 -4.818370000000000153e-01 -8.710360000000000325e-01 5.026380000000000292e-01 -8.051180000000000003e-01 -3.989249999999999741e-01 -8.719240000000000324e-01 -5.051440000000000374e-01 -2.976659999999999862e-01 9.446599999999999442e-02 -3.151590000000000225e-01 -7.418489999999999807e-01 3.302189999999999848e-01 -2.791529999999999845e-01 -4.277699999999999836e-01 -3.327600000000000002e-02 -1.459460999999999897e+00 -3.651750000000000274e-01 -4.998600000000000265e-02 -4.117600000000000149e-01 -5.865930000000000311e-01 3.190950000000000175e-01 7.419199999999999406e-02 9.486999999999999600e-02 1.774020000000000041e-01 -5.129569999999999963e-01 -5.671500000000000152e-02 4.312309999999999754e-01 -8.381819999999999826e-01 -6.127310000000000256e-01 -1.903900000000000037e-02 -1.916239999999999888e-01 -1.610260000000000025e-01 -6.734199999999999908e-02 9.985169999999999879e-01 -5.976789999999999603e-01 -2.883850000000000025e-01 8.197500000000000620e-02
1.729330000000000034e-01 3.425900000000000056e-01 2.696859999999999813e-01 5.902629999999999821e-01 2.635580000000000145e-01 1.247276000000000051e+00 1.079129999999999950e-01 3.356959999999999944e-01 -4.748299999999999743e-01 -9.947400000000000686e-02 -1.226239999999999969e-01 -1.096087999999999951e+00 1.599077999999999999e+00 8.548639999999999572e-01 8.201389999999999514e-01 8.045940000000000314e-01 6.312440000000000273e-01 2.362309999999999965e-01 -1.315910000000000135e-01 -1.134857999999999922e+00 1.179589999999999916e+00 -2.560439999999999938e-01 3.514740000000000086e-01 3.617499999999999882e-02 2.455769999999999897e-01 1.058399999999999966e-02 -4.609200000000000103e-02 -7.114679999999999893e-01 -6.450019999999999643e-01 -2.791899999999999937e-02 -3.484099999999999975e-01 7.632700000000000595e-02 2.194790000000000074e-01 3.014629999999999810e-01 -4.962880000000000069e-01 4.309790000000000010e-01 -2.991550000000000042e-01 8.420099999999999807e-02 -5.608750000000000124e-01 -3.734060000000000157e-01 -1.059234000000000009e+00 -7.909410000000000052e-01 -9.762800000000000367e-01 -1.546939999999999982e-01 -3.666309999999999847e-01 -1.979999999999999989e-03 6.209130000000000482e-01 5.326119999999999743e-01 -2.069459999999999911e-01 7.033570000000000100e-01 -1.010431999999999997e+00 9.195100000000000495e-02 -1.654999999999999874e-02 -1.199737000000000053e+00 -4.945930000000000049e-01 -2.266809999999999936e-01 1.110270000000000007e-01 -1.442300000000000006e-02 -4.188760000000000261e-01 4.903500000000000081e-01
2.431319999999999870e-01 -1.116373000000000060e+00 6.832850000000000312e-01 9.835699999999999998e-02 3.735189999999999899e-01 1.893399999999999972e+00 3.232689999999999730e-01 -1.873690000000000078e-01 7.069480000000000208e-01 8.636260000000000048e-01 2.073190000000000033e-01 5.426400000000000112e-01 6.873029999999999973e-01 5.322090000000000432e-01 2.693459999999999743e-01 9.487389999999999990e-01 -2.974339999999999762e-01 9.221100000000000130e-02 -5.506459999999999688e-01 -2.402680000000000093e-01 -6.983390000000000430e-01 1.157220000000000054e-01 -3.420679999999999832e-01 -9.712640000000000162e-01 -2.462540000000000007e-01 1.127326000000000050e+00 -5.557299999999999462e-01 -4.560520000000000129e-01 -8.042970000000000397e-01 -2.311999999999999819e-03 -4.075050000000000061e-01 2.137100000000000111e-01 8.998000000000000789e-03 -9.276600000000000124e-02 -4.306619999999999893e-01 -1.165318000000000076e+00 3.728389999999999760e-01 -1.147330000000000017e-01 3.468120000000000092e-01 -4.401370000000000005e-01 1.652530000000000110e-01 -7.366390000000000438e-01 -3.160600000000000215e-02 5.944460000000000299e-01 -4.165389999999999926e-01 -3.858090000000000130e-01 2.772799999999999918e-02 5.087220000000000075e-01 -8.685509999999999620e-01 2.585640000000000160e-01 -5.710229999999999473e-01 -4.886929999999999885e-01 -2.994140000000000135e-01 8.043300000000000449e-02 5.789459999999999607e-01 -1.316160000000000108e-01 -3.885109999999999952e-01 -2.639130000000000087e-01 4.641620000000000190e-01 3.728810000000000180e-01
-3.537730000000000041e-01 3.461100000000000287e-02 7.853940000000000365e-01 1.463849999999999874e-01 -1.557096000000000036e+00 1.736989999999999923e-01 2.927589999999999915e-01 3.331069999999999864e-01 -2.155150000000000121e-01 -3.110530000000000239e-01 -1.678449000000000080e+00 2.404189999999999938e-01 -1.131018000000000079e+00 1.477040000000000020e-01 6.323220000000000507e-01 -3.787739999999999996e-01 -7.503330000000000277e-01 9.543779999999999486e-01 -3.583330000000000126e-01 -4.954259999999999775e-01 5.019649999999999945e-01 -5.265159999999999840e-01 1.442965000000000053e+00 -5.589800000000000324e-01 -7.907220000000000359e-01 6.237110000000000154e-01 8.039000000000000312e-02 5.281600000000000183e-02 3.710040000000000004e-01 -3.107889999999999819e-01 2.969559999999999977e-01 8.620179999999999509e-01 3.722799999999999720e-02 4.279299999999999771e-01 7.552860000000000129e-01 7.791040000000000187e-01 6.716290000000000315e-01 1.021900000000000065e-02 -5.582840000000000025e-01 5.147399999999999753e-01 4.119289999999999896e-01 -6.484039999999999804e-01 3.881430000000000158e-01 3.884850000000000247e-01 -5.930800000000000516e-01 -6.101429999999999909e-01 6.608570000000000277e-01 -1.392484999999999973e+00 3.965080000000000271e-01 -1.405550000000000133e-01 2.104209999999999969e-01 9.757369999999999655e-01 -9.630100000000000326e-01 -1.876819999999999877e-01 1.130459999999999937e-01 3.036809999999999787e-01 2.165209999999999912e-01 1.836810000000000109e-01 -7.607080000000000508e-01 -1.466210000000000013e-01
-7.782799999999999441e-02 -3.192490000000000050e-01 -1.702359999999999984e-01 1.562050000000000105e-01 2.732000000000000053e-03 6.589699999999999724e-02 -9.568870000000000431e-01 -2.382489999999999886e-01 5.002330000000000387e-01 -6.242529999999999468e-01 -5.862270000000000536e-01 -1.617570000000000119e-01 -5.244889999999999830e-01 6.211210000000000342e-01 -5.127329999999999943e-01 -4.990370000000000084e-01 1.968969999999999887e-01 2.063820000000000099e-01 5.077469999999999484e-01 -3.154499999999999665e-02 5.690709999999999935e-01 -5.947900000000000409e-01 6.408430000000000515e-01 4.238999999999999713e-02 5.875799999999999912e-01 4.474600000000000244e-01 -5.858409999999999451e-01 5.381829999999999670e-01 4.303330000000000211e-01 -2.670819999999999861e-01 2.531630000000000269e-01 3.640639999999999987e-01 -7.771000000000000130e-02 4.039299999999999835e-02 2.715830000000000188e-01 -9.654799999999999494e-02 -2.348969999999999947e-01 -2.043599999999999930e-02 -1.662599999999999842e-02 -4.351019999999999888e-01 -4.247960000000000069e-01 -7.795699999999999852e-02 3.298690000000000233e-01 5.459699999999999970e-02 5.933100000000000179e-02 6.327500000000000346e-01 -5.303299999999999681e-01 2.668679999999999941e-01 2.317819999999999880e-01 7.347299999999999665e-02 4.372460000000000235e-01 1.424439999999999873e-01 -8.516749999999999599e-01 1.141120000000000051e-01 6.281579999999999941e-01 -1.180699999999999979e-02 -5.020120000000000138e-01 -1.009909999999999974e-01 -8.878900000000000681e-02 2.069739999999999913e-01
3.280259999999999843e-01 -6.190699999999999675e-02 2.017619999999999969e-01 4.372940000000000160e-01 2.869309999999999916e-01 -1.437269999999999937e-01 -3.610119999999999996e-01 -4.529909999999999770e-01 3.493910000000000071e-01 -1.435600000000000070e-02 -5.441319999999999490e-01 -9.536600000000000632e-02 3.732840000000000047e-01 -5.251299999999999718e-02 2.116520000000000068e-01 4.281240000000000046e-01 6.564520000000000355e-01 5.840790000000000148e-01 -1.281366999999999923e+00 -6.263220000000000454e-01 -3.937550000000000217e-01 9.214329999999999465e-01 1.292559999999999931e+00 8.716249999999999831e-01 1.212730000000000058e-01 3.399320000000000119e-01 5.377410000000000245e-01 -4.983230000000000159e-01 6.468939999999999690e-01 1.713580000000000103e-01 -2.259999999999999856e-03 -1.247900000000000051e-02 5.243050000000000210e-01 4.327739999999999920e-01 -8.655300000000000493e-02 1.310640000000000138e-01 -3.430500000000000216e-02 3.483499999999999791e-02 -4.474960000000000049e-01 -9.782699999999999729e-02 5.899299999999999683e-02 -1.804489999999999983e-01 3.827139999999999986e-01 -7.162709999999999910e-01 -6.425459999999999505e-01 -7.396660000000000457e-01 9.784169999999999812e-01 -8.660390000000000033e-01 3.224480000000000124e-01 -4.927670000000000106e-01 -9.394900000000000473e-02 -6.549880000000000146e-01 9.289279999999999760e-01 2.232639999999999902e-01 -1.061395000000000088e+00 -7.484490000000000309e-01 -6.290299999999999780e-01 9.981290000000000440e-01 -1.429559999999999942e+00 -3.138819999999999943e-01
8.817150000000000265e-01 3.908479999999999732e-01 3.113230000000000164e-01 1.882570000000000077e-01 -1.376721000000000084e+00 8.775359999999999827e-01 -7.128459999999999797e-01 7.174899999999999334e-02 4.068849999999999967e-01 -4.357799999999999868e-02 -1.665704999999999991e+00 5.310599999999999765e-01 7.172999999999999689e-03 -2.184820000000000095e-01 3.663640000000000230e-01 9.123569999999999736e-01 1.785549999999999915e-01 -3.954130000000000145e-01 2.288600000000000079e-01 -8.700919999999999765e-01 -8.542299999999999893e-02 -6.282830000000000359e-01 3.787340000000000151e-01 2.129810000000000036e-01 -5.923370000000000024e-01 4.017299999999999760e-01 -9.115940000000000154e-01 4.990109999999999824e-01 5.046929999999999472e-01 3.183279999999999998e-01 1.795239999999999891e-01 9.415679999999999605e-01 -9.575129999999999475e-01 -5.327180000000000248e-01 3.254099999999999770e-01 6.672460000000000058e-01 -4.287389999999999812e-01 9.542450000000000099e-01 6.878290000000000237e-01 3.921049999999999813e-01 -6.332969999999999988e-01 -3.191860000000000253e-01 7.063789999999999791e-01 6.505419999999999536e-01 -4.072300000000000225e-02 -1.102856999999999976e+00 -1.373969999999999914e-01 -5.172390000000000043e-01 -5.650009999999999755e-01 -3.467900000000000149e-02 7.647600000000000231e-02 1.573039999999999994e-01 2.818149999999999822e-01 -2.917460000000000053e-01 1.237110000000000015e-01 -3.221709999999999852e-01 -1.430120000000000002e-01 3.299619999999999775e-01 1.786550000000000082e-01 -7.941759999999999931e-01
8.582030000000000491e-01 8.979489999999999972e-01 6.756459999999999688e-01 1.249870000000000009e-01 -4.002419999999999867e-01 -3.806539999999999924e-01 3.115700000000000136e-01 7.378700000000000259e-01 7.452239999999999975e-01 8.504589999999999650e-01 2.267210000000000059e-01 2.669329999999999758e-01 7.491360000000000241e-01 9.115839999999999499e-01 -8.766319999999999668e-01 -1.333920000000000106e-01 2.724650000000000127e-01 2.276559999999999973e-01 -4.369199999999999751e-01 -2.771549999999999847e-01 4.677370000000000139e-01 -7.469529999999999781e-01 -1.128697000000000061e+00 -4.649719999999999964e-01 -1.619440000000000046e-01 -8.576719999999999899e-01 -5.688300000000000300e-02 -5.521310000000000384e-01 8.113599999999999701e-01 1.596619999999999984e-01 -7.731829999999999536e-01 -1.754290000000000016e-01 7.196740000000000359e-01 -2.355099999999999902e-02 -6.246300000000000185e-01 3.350000000000000200e-02 1.439320000000000044e-01 -7.083059999999999912e-01 -5.251040000000000152e-01 -2.749499999999999861e-02 5.903070000000000261e-01 -4.197580000000000200e-01 -8.536000000000000532e-02 -5.739140000000000352e-01 7.254399999999999737e-02 -7.000399999999999678e-02 -3.265640000000000209e-01 -6.882160000000000499e-01 5.164560000000000262e-01 -4.660509999999999931e-01 -5.017850000000000366e-01 4.680810000000000248e-01 6.821399999999999686e-02 -3.750379999999999825e-01 2.727350000000000052e-01 3.563799999999999746e-01 -1.170859999999999956e-01 -1.284624999999999906e+00 6.658110000000000417e-01 1.037552999999999948e+00
3.379000000000000059e-03 9.678200000000000691e-02 -1.646469999999999878e-01 8.592800000000000438e-02 1.970679999999999932e-01 3.133899999999999880e-02 -1.103630000000000028e-01 3.308989999999999987e-01 4.096310000000000229e-01 1.187939999999999968e-01 1.045969999999999955e-01 -3.528410000000000157e-01 4.421910000000000007e-01 -3.961939999999999906e-01 -1.840849999999999986e-01 -1.644500000000000128e-01 2.537849999999999828e-01 3.665649999999999742e-01 -1.105050000000000060e-01 8.858399999999999608e-02 -1.556309999999999916e-01 -4.243709999999999982e-01 2.154490000000000016e-01 -4.486780000000000213e-01 -5.312000000000000055e-02 -2.329759999999999887e-01 -1.567689999999999917e-01 -9.440999999999999392e-02 -1.624680000000000013e-01 1.022669999999999968e-01 -6.036899999999999905e-02 -1.411979999999999902e-01 -8.376899999999999624e-02 -7.253199999999999925e-02 2.158200000000000049e-02 2.979370000000000074e-01 -9.477399999999999713e-02 5.743000000000000188e-02 4.307710000000000150e-01 3.928980000000000250e-01 2.684200000000000128e-02 -4.848399999999999932e-02 -8.109299999999999842e-02 -4.705610000000000070e-01 -6.823259999999999881e-01 -8.633499999999999508e-02 -1.293809999999999960e-01 2.887339999999999907e-01 1.272447000000000106e+00 -7.130950000000000344e-01 3.484189999999999787e-01 -9.001120000000000232e-01 2.780980000000000119e-01 -5.469530000000000225e-01 2.841009999999999924e-01 2.779409999999999936e-01 2.281199999999999894e-02 -3.473040000000000016e-01 2.968169999999999975e-01 5.257089999999999819e-01
-3.012870000000000270e-01 3.616480000000000250e-01 -5.238380000000000258e-01 -2.008899999999999922e-02 1.781389999999999918e-01 1.245819999999999983e-01 -1.767650000000000055e-01 -1.399110000000000076e-01 -5.053799999999999959e-02 -9.747200000000000308e-01 -8.980000000000000482e-02 -1.077099999999999932e-02 8.020289999999999919e-01 -4.930499999999999883e-01 -5.235200000000000270e-02 8.882299999999999918e-02 4.683800000000000185e-01 -4.061520000000000130e-01 -6.692979999999999485e-01 -7.953189999999999982e-01 2.103389999999999982e-01 1.250156000000000045e+00 -5.563690000000000024e-01 2.763559999999999905e-01 -7.660660000000000247e-01 6.400460000000000038e-01 -3.850930000000000186e-01 1.136312999999999906e+00 -6.830749999999999877e-01 -2.760029999999999983e-01 5.129240000000000466e-01 -3.332620000000000027e-01 2.870159999999999934e-01 6.001950000000000340e-01 1.744199999999999917e-02 -5.658769999999999634e-01 -4.463999999999999913e-02 3.158090000000000064e-01 5.918200000000000127e-01 -4.889959999999999862e-01 2.000059999999999893e-01 3.192150000000000265e-01 2.408800000000000108e-01 -3.665899999999999714e-02 1.101140000000000035e-01 5.068799999999999695e-02 -8.082499999999999407e-02 1.311349000000000098e+00 3.448099999999999776e-02 8.190920000000000423e-01 -4.242400000000000337e-02 -1.319004000000000065e+00 6.406070000000000375e-01 -7.940220000000000056e-01 3.465880000000000072e-01 -2.409399999999999875e-01 -1.891700000000000048e-01 -3.022130000000000094e-01 -1.919599999999999917e-01 6.544899999999999329e-02
-1.055819999999999953e-01 -3.202450000000000019e-01 4.821989999999999887e-01 -2.809459999999999735e-01 1.591269999999999907e-01 1.729100000000000081e-01 -3.458620000000000028e-01 -5.372099999999999792e-02 4.683899999999999730e-01 -5.643999999999999712e-03 -2.046880000000000088e-01 6.008240000000000247e-01 -5.891030000000000433e-01 2.181400000000000006e-02 9.814500000000000446e-01 -1.966360000000000052e-01 -1.454340000000000077e-01 -1.254859999999999864e-01 1.922929999999999917e-01 1.381979999999999875e-01 3.114979999999999971e-01 -5.670300000000000340e-02 1.704620000000000024e-01 3.579999999999999741e-04 3.115729999999999889e-01 -2.713789999999999814e-01 -1.809699999999999920e-01 9.307500000000000495e-02 5.392730000000000024e-01 -1.381890000000000063e-01 2.127999999999999892e-01 4.638300000000000062e-02 1.793170000000000042e-01 1.452120000000000077e-01 3.745269999999999988e-01 -1.819530000000000036e-01 6.026669999999999527e-01 -4.875880000000000214e-01 -9.706449999999999800e-01 -1.393199999999999994e-02 -1.238220000000000015e-01 -6.040199999999999736e-02 1.661229999999999929e-01 -3.905999999999999750e-02 -3.321879999999999833e-01 1.153819999999999985e-01 1.577299999999999883e-02 -6.414779999999999927e-01 -1.359299999999999953e-01 -1.971449999999999869e-01 -4.563809999999999811e-01 -4.556930000000000147e-01 2.282990000000000019e-01 -3.102280000000000038e-01 1.610610000000000097e-01 4.263970000000000260e-01 1.901289999999999925e-01 1.858450000000000102e-01 -2.771730000000000027e-01 1.084300000000000021e-02
4.528469999999999995e-01 1.370470000000000022e-01 -1.014632999999999896e+00 1.859989999999999977e-01 6.273030000000000550e-01 2.050599999999999992e-02 -3.595740000000000047e-01 -2.805429999999999868e-01 -4.512590000000000212e-01 -1.051287000000000083e+00 -1.804090000000000138e-01 -8.540969999999999951e-01 4.509079999999999755e-01 -3.840020000000000100e-01 3.259999999999999877e-03 8.034900000000000375e-02 7.043679999999999941e-01 -6.009870000000000489e-01 -1.201289999999999997e-01 3.258909999999999862e-01 -3.318940000000000223e-01 -6.048829999999999485e-01 1.228429999999999939e-01 -3.296410000000000173e-01 -7.859900000000000220e-02 -7.589789999999999592e-01 -4.390499999999999958e-02 -9.639929999999999888e-01 -4.877290000000000236e-01 -9.687240000000000295e-01 -7.123739999999999517e-01 -1.078120000000000051e-01 7.550540000000000029e-01 6.916360000000000285e-01 -2.900200000000000000e-02 -9.282899999999999485e-02 1.462920000000000054e-01 6.305600000000000094e-02 8.344549999999999468e-01 4.109439999999999760e-01 8.409200000000000008e-02 6.017339999999999911e-01 2.393669999999999964e-01 6.899999999999999667e-05 9.230509999999999549e-01 7.613820000000000032e-01 1.112619000000000025e+00 1.472042999999999990e+00 -3.081599999999999895e-01 -4.666279999999999872e-01 -1.976660000000000084e-01 1.049992000000000036e+00 -4.316030000000000144e-01 2.243080000000000074e-01 -3.270799999999999819e-01 2.977279999999999927e-01 -4.374299999999999716e-02 5.636200000000000238e-02 -3.483089999999999797e-01 9.496699999999999586e-02
5.881299999999999722e-02 -8.224979999999999514e-01 3.753199999999999870e-01 -3.018469999999999764e-01 5.836299999999999821e-02 -9.099380000000000246e-01 -5.276999999999999469e-01 -2.176700000000000162e-02 7.050020000000000175e-01 -2.875289999999999790e-01 3.770149999999999890e-01 -3.047050000000000036e-01 8.356590000000000407e-01 -1.318300000000000027e-02 -5.723089999999999566e-01 -2.247959999999999958e-01 9.629820000000000046e-01 1.467910000000000048e-01 -6.892380000000000173e-01 -7.326420000000000154e-01 -7.690029999999999921e-01 -1.620500000000000065e-02 -6.982840000000000158e-01 -4.659070000000000156e-01 1.073007999999999962e+00 -9.231040000000000356e-01 4.260680000000000023e-01 -6.311219999999999608e-01 1.327758999999999912e+00 5.074359999999999982e-01 -4.661569999999999880e-01 2.370879999999999932e-01 1.164079999999999976e-01 9.193510000000000293e-01 1.526559999999999861e-01 -4.090000000000000211e-04 -3.106019999999999892e-01 -6.098100000000000048e-02 -1.832789999999999975e-01 1.604600000000000123e-02 1.186299999999999993e-01 8.850390000000000201e-01 3.273000000000000215e-02 -1.106335000000000068e+00 -5.478279999999999816e-01 7.038700000000000512e-02 -4.063120000000000065e-01 -7.227900000000000436e-01 3.440019999999999745e-01 3.211820000000000230e-01 -1.464500000000000003e-02 -5.909339999999999593e-01 1.659933000000000103e+00 2.811359999999999970e-01 2.611660000000000093e-01 2.574000000000000177e-01 2.129089999999999872e-01 4.349669999999999925e-01 -6.879009999999999847e-01 8.347020000000000550e-01
4.025819999999999954e-01 4.947670000000000123e-01 -8.336100000000000454e-02 1.154369999999999979e-01 -7.793109999999999760e-01 -7.205110000000000126e-01 3.816559999999999953e-01 5.564090000000000424e-01 8.114799999999999791e-02 7.032399999999999762e-02 -1.609895000000000076e+00 1.642000000000000057e-02 -3.956300000000000094e-02 2.204119999999999968e-01 -4.709100000000000091e-02 -4.482789999999999830e-01 -1.594694999999999974e+00 6.180400000000000338e-01 6.549260000000000081e-01 1.248910000000000020e-01 -7.249860000000000193e-01 2.824099999999999874e-02 6.189719999999999667e-01 7.900749999999999718e-01 -7.372309999999999697e-01 1.372576999999999936e+00 -1.214806000000000052e+00 1.069259999999999933e-01 -3.059140000000000192e-01 1.817719999999999891e-01 3.727409999999999890e-01 2.085660000000000014e-01 1.684740000000000126e-01 -3.718980000000000063e-01 2.381030000000000091e-01 4.638249999999999873e-01 3.193139999999999867e-01 5.938900000000000290e-01 -1.470130000000000048e-01 -6.082429999999999781e-01 5.472979999999999512e-01 3.554640000000000022e-01 -6.046200000000000463e-01 2.013119999999999910e-01 -3.135700000000000293e-02 4.770760000000000001e-01 -3.924289999999999723e-01 8.560550000000000104e-01 1.042590000000000044e-01 -2.118160000000000043e-01 3.207240000000000091e-01 2.911210000000000186e-01 4.633950000000000014e-01 -1.954500000000000126e-01 -2.510859999999999759e-01 -3.367629999999999790e-01 -3.677529999999999966e-01 -2.636830000000000007e-01 -4.097680000000000211e-01 -3.196689999999999809e-01
1.879879999999999884e-01 6.604830000000000423e-01 -9.260009999999999630e-01 3.414639999999999898e-01 -1.758207999999999993e+00 -1.861790000000000112e-01 4.142699999999999855e-02 4.349990000000000245e-01 -2.371820000000000039e-01 -4.802599999999999925e-02 -5.365210000000000257e-01 -2.501680000000000015e-01 -4.070250000000000257e-01 1.624099999999999988e-01 4.345990000000000131e-01 -2.572710000000000274e-01 -4.868310000000000137e-01 6.032720000000000304e-01 -4.336889999999999912e-01 -3.293050000000000144e-01 -2.049120000000000108e-01 1.346019999999999994e-01 5.120059999999999611e-01 1.569000000000000082e-03 -6.791390000000000482e-01 -8.164499999999999535e-02 -5.624099999999999655e-01 1.902639999999999887e-01 -1.491139999999999965e-01 7.045810000000000128e-01 1.082729999999999942e-01 1.251905999999999963e+00 -6.097000000000000336e-02 2.486949999999999994e-01 5.593820000000000459e-01 5.721330000000000027e-01 2.271710000000000118e-01 3.542640000000000233e-01 4.232650000000000023e-01 -6.191189999999999749e-01 -3.136369999999999991e-01 -8.272709999999999786e-01 -1.707069999999999976e-01 2.251440000000000108e-01 8.090920000000000334e-01 4.649579999999999824e-01 1.136299999999999949e-01 -7.521860000000000213e-01 -2.931730000000000169e-01 3.697650000000000103e-01 1.276829999999999909e-01 1.314869999999999928e-01 -7.288470000000000226e-01 5.335290000000000310e-01 1.535930000000000073e-01 2.995459999999999789e-01 -2.146049999999999902e-01 6.782280000000000530e-01 -5.594249999999999501e-01 1.215899999999999967e-02
5.201280000000000348e-01 6.433720000000000550e-01 -1.928989999999999871e-01 -4.235900000000000082e-02 -1.353700000000000042e-02 3.884319999999999995e-01 -2.475580000000000003e-01 -4.998110000000000053e-01 7.891139999999999821e-01 6.812999999999999612e-03 -6.456290000000000084e-01 3.086289999999999867e-01 3.405199999999999894e-01 -2.656250000000000000e-01 -7.562889999999999890e-01 6.101509999999999989e-01 3.126120000000000010e-01 -6.325020000000000087e-01 -1.341456999999999899e+00 6.529270000000000351e-01 -7.203479999999999883e-01 -2.929800000000000182e-01 -1.134769999999999945e-01 -9.347900000000000098e-01 3.156919999999999726e-01 4.849699999999999844e-02 -1.320473000000000008e+00 5.618360000000000021e-01 5.576119999999999965e-01 -2.741390000000000216e-01 -1.067674999999999930e+00 -3.708100000000000285e-02 6.933200000000000474e-02 4.960069999999999757e-01 2.139260000000000050e-01 2.377470000000000139e-01 1.146220000000000017e-01 -9.395630000000000370e-01 3.483570000000000277e-01 -8.309140000000000414e-01 7.006360000000000365e-01 5.430009999999999559e-01 4.123519999999999963e-01 -2.614659999999999762e-01 9.334299999999999542e-02 1.942699999999999982e-02 -1.890439999999999898e-01 2.107950000000000101e-01 3.183860000000000023e-01 6.750840000000000174e-01 -4.529509999999999925e-01 -6.188059999999999672e-01 -8.153510000000000479e-01 8.766350000000000531e-01 -1.139150000000000024e-01 2.445150000000000101e-01 3.349949999999999872e-01 8.397320000000000340e-01 -2.685969999999999747e-01 1.084011999999999976e+00
-5.077469999999999484e-01 -2.852230000000000043e-01 1.955999999999999961e-01 -8.760879999999999779e-01 -1.579869999999999886e-01 -2.714869999999999783e-01 1.817809999999999981e-01 4.811529999999999974e-01 -8.284299999999999997e-02 5.416199999999999903e-01 1.507539999999999991e-01 -4.988079999999999736e-01 -1.427299999999999923e-02 -4.558869999999999867e-01 2.230469999999999953e-01 -1.064559999999999951e-01 -5.382100000000000078e-02 1.005954999999999933e+00 -1.252723999999999949e+00 9.139580000000000481e-01 5.604869999999999575e-01 -2.672550000000000203e-01 -1.185264000000000095e+00 2.495010000000000006e-01 2.191879999999999939e-01 -3.066000000000000149e-03 5.712249999999999828e-01 -3.999489999999999990e-01 -2.207310000000000105e-01 3.611469999999999958e-01 1.812930000000000097e-01 1.153890000000000055e-01 -2.811250000000000138e-01 8.259109999999999507e-01 -3.634240000000000248e-01 -4.952349999999999808e-01 -3.165769999999999973e-01 -4.241969999999999907e-01 -4.791360000000000063e-01 -4.011499999999999788e-02 8.232399999999999440e-02 7.148269999999999902e-01 1.525619999999999976e+00 -6.867649999999999588e-01 -7.584760000000000391e-01 2.377479999999999871e-01 4.331980000000000275e-01 -1.470609999999999973e-01 6.074469999999999592e-01 1.321134999999999948e+00 -6.514050000000000118e-01 -2.113579999999999903e-01 5.848219999999999530e-01 -7.987729999999999553e-01 1.770000000000000046e-02 -5.487999999999999823e-02 6.414599999999999469e-02 -3.457660000000000178e-01 -1.914889999999999926e-01 5.184140000000000414e-01
-6.682999999999999705e-03 5.293599999999999695e-02 -6.466039999999999566e-01 -2.390639999999999987e-01 -1.879000000000000028e-03 -3.267300000000000204e-01 -1.087449999999999944e-01 -1.114210000000000061e-01 2.026000000000000023e-02 -1.491099999999999925e-01 7.630299999999999583e-02 -4.038370000000000015e-01 -3.438229999999999897e-01 -3.139109999999999956e-01 -1.038540000000000019e-01 -1.890700000000000019e-02 -9.591700000000000226e-02 -6.991600000000000592e-02 3.005800000000000138e-02 3.019419999999999882e-01 2.709590000000000054e-01 1.106830000000000036e-01 -5.624789999999999512e-01 6.320599999999999552e-01 -2.354999999999999889e-03 8.576000000000000290e-03 2.680950000000000277e-01 3.725200000000000039e-02 -8.630500000000000671e-02 1.356489999999999918e-01 1.841700000000000004e-01 1.557300000000000073e-01 3.298940000000000206e-01 3.275529999999999831e-01 -8.469999999999999751e-02 2.348020000000000107e-01 -3.700069999999999748e-01 -1.706179999999999919e-01 3.811329999999999996e-01 1.656940000000000079e-01 -1.242020000000000068e-01 3.022980000000000111e-01 -7.845900000000000096e-02 1.731179999999999941e-01 -1.553779999999999883e-01 1.219579999999999970e-01 3.601399999999999740e-02 4.492600000000000066e-02 2.168809999999999905e-01 -1.323570000000000024e-01 -2.081669999999999909e-01 4.717009999999999814e-01 4.302980000000000138e-01 1.685379999999999934e-01 -3.140839999999999743e-01 -1.552779999999999994e-01 -5.740239999999999787e-01 -3.470899999999999680e-02 6.041480000000000183e-01 -3.001039999999999819e-01
-1.942280000000000117e-01 -3.044520000000000004e-01 -6.210689999999999822e-01 4.955220000000000180e-01 -2.979450000000000154e-01 3.130649999999999822e-01 6.472139999999999560e-01 6.419730000000000159e-01 -1.350500000000000034e-01 -5.134699999999999681e-02 -1.410856000000000110e+00 -9.388570000000000526e-01 1.359930000000000028e-01 -2.282000000000000174e-03 -1.002679999999999960e-01 6.289139999999999731e-01 1.749390000000000112e-01 1.959809999999999885e-01 -1.614859999999999907e-01 3.013179999999999747e-01 -9.641370000000000218e-01 2.533949999999999814e-01 7.063730000000000286e-01 -1.160277000000000003e+00 3.041840000000000099e-01 1.123700000000000046e-02 3.359500000000000264e-01 -1.163316000000000017e+00 3.065459999999999852e-01 4.062999999999999945e-01 -2.935659999999999936e-01 -6.843799999999999883e-02 -2.177870000000000084e-01 6.071599999999999914e-02 1.065957000000000043e+00 5.603479999999999572e-01 2.577980000000000271e-01 -6.060499999999999915e-02 5.387739999999999752e-01 -1.233930000000000027e-01 -2.478470000000000117e-01 4.688640000000000030e-01 -2.134679999999999911e-01 -8.416040000000000187e-01 -2.123440000000000050e-01 -4.010790000000000188e-01 6.611059999999999715e-01 1.701860000000000039e-01 -7.625950000000000228e-01 -2.404610000000000081e-01 -3.584930000000000061e-01 2.045970000000000011e-01 -3.161490000000000133e-01 1.007479000000000013e+00 5.526199999999999862e-02 4.998199999999999865e-01 6.261130000000000306e-01 3.208829999999999738e-01 -5.786320000000000352e-01 8.522399999999999420e-02