8.162021679330742074e+00 -4.695011181145538097e-18 -1.326939863954938591e-17 -4.004689681451713668e+00 7.285108986866577929e+00 2.219607936740383566e-17 4.572143686443865818e-01 -5.402903335996093320e-02 1.067942431531125713e+01
8.162023403772842300e+00 -3.545818955125078878e-18 -2.413166926757661215e-17 -4.004690440700486853e+00 7.285110708833597570e+00 5.533768567597365921e-18 4.572144834576578609e-01 -5.402953070080235981e-02 1.067942633004715880e+01
8.162026651577100722e+00 -2.706247846000304685e-18 3.774544742161511673e-18 -4.004691882503271572e+00 7.285113908889532475e+00 7.460385682595335850e-18 4.572147213820165201e-01 -5.403048494519018669e-02 1.067943009341942684e+01
8.162031486792681534e+00 -2.260315448816807779e-20 -4.045395510103372967e-19 -4.004694029891127549e+00 7.285118645988910124e+00 1.083363785875518274e-17 4.572151076667435587e-01 -5.403192918142809414e-02 1.067943566576442471e+01
8.162038089461297830e+00 3.187576574089098043e-18 1.524579967901407172e-17 -4.004696950746533091e+00 7.285125099013082028e+00 4.721926585777699231e-18 4.572156722315666721e-01 -5.403392312056962132e-02 1.067944323733338585e+01
8.162046236508542663e+00 1.172242405030978946e-18 6.024729170860304225e-17 -4.004700536160090252e+00 7.285133052972979861e+00 1.764527898948363581e-18 4.572164139327762888e-01 -5.403641877044141478e-02 1.067945253622743351e+01
8.162055528866128284e+00 6.646640199080221616e-18 9.725648099919080299e-18 -4.004704607952318973e+00 7.285142109477797057e+00 -5.473364409279883568e-18 4.572173122161001801e-01 -5.403929998217367470e-02 1.067946308602922301e+01
8.162066056516859902e+00 7.129782918054033017e-18 2.175693130995825355e-17 -4.004709204228971586e+00 7.285152354993528867e+00 -2.973245530815489853e-17 4.572183862071597105e-01 -5.404260990700708589e-02 1.067947497428295556e+01
8.162078189574387466e+00 -4.638937073147012329e-18 -4.843178005152470154e-18 -4.004714478064729910e+00 7.285164151347029104e+00 -5.731226287138829426e-18 4.572196909973331169e-01 -5.404647228445360468e-02 1.067948859255642802e+01
8.162091704975077633e+00 -1.088950320666920020e-18 1.170115614694068372e-18 -4.004720324304244627e+00 7.285177284575104828e+00 9.917006664787503728e-18 4.572212186627064856e-01 -5.405082669737275997e-02 1.067950366210598645e+01
8.239273454999999302e+00 0.000000000000000000e+00 0.000000000000000000e+00 -4.063393664000000349e+00 7.120473606000000011e+00 0.000000000000000000e+00 5.512109419999999815e-01 -9.559665600000000207e-02 1.059894362300000026e+01
8.239275236999999308e+00 0.000000000000000000e+00 0.000000000000000000e+00 -4.063394495999999911e+00 7.120474061000000354e+00 0.000000000000000000e+00 5.512113330000000255e-01 -9.559669199999999700e-02 1.059894476700000077e+01
8.239278555000000281e+00 0.000000000000000000e+00 0.000000000000000000e+00 -4.063396072999999831e+00 7.120474854000000242e+00 0.000000000000000000e+00 5.512120630000000299e-01 -9.559670100000000614e-02 1.059894689200000073e+01
8.239283477000000744e+00 0.000000000000000000e+00 0.000000000000000000e+00 -4.063398430000000339e+00 7.120475991000000171e+00 0.000000000000000000e+00 5.512131230000000270e-01 -9.559664700000000681e-02 1.059895003599999974e+01
8.239290160999999557e+00 0.000000000000000000e+00 0.000000000000000000e+00 -4.063401645999999978e+00 7.120477499999999793e+00 0.000000000000000000e+00 5.512145210000000128e-01 -9.559649100000000566e-02 1.059895430099999913e+01
8.239298355000000740e+00 0.000000000000000000e+00 0.000000000000000000e+00 -4.063405600000000284e+00 7.120479314999999865e+00 0.000000000000000000e+00 5.512161799999999445e-01 -9.559620800000000196e-02 1.059895951600000075e+01
8.239307636999999573e+00 0.000000000000000000e+00 0.000000000000000000e+00 -4.063410095000000055e+00 7.120481322999999918e+00 0.000000000000000000e+00 5.512180049999999554e-01 -9.559578800000000098e-02 1.059896540599999959e+01
8.239318122000000244e+00 0.000000000000000000e+00 0.000000000000000000e+00 -4.063415189999999733e+00 7.120483537000000140e+00 0.000000000000000000e+00 5.512200050000000129e-01 -9.559520900000000043e-02 1.059897203499999918e+01
8.239330135999999527e+00 0.000000000000000000e+00 0.000000000000000000e+00 -4.063421047000000286e+00 7.120486017000000167e+00 0.000000000000000000e+00 5.512222209999999567e-01 -9.559442799999999518e-02 1.059897959899999975e+01
8.239343356999999202e+00 0.000000000000000000e+00 0.000000000000000000e+00 -4.063427507000000105e+00 7.120488685999999845e+00 0.000000000000000000e+00 5.512245709999999965e-01 -9.559344699999999806e-02 1.059898788099999933e+01
8.253035202999999598e+00 0.000000000000000000e+00 0.000000000000000000e+00 -4.009863120000000336e+00 7.152631333000000424e+00 0.000000000000000000e+00 4.936306759999999905e-01 4.249791499999999722e-02 1.057711028499999983e+01
8.253037120000000115e+00 0.000000000000000000e+00 0.000000000000000000e+00 -4.009863786000000374e+00 7.152631983000000027e+00 0.000000000000000000e+00 4.936307990000000090e-01 4.249825299999999972e-02 1.057711133699999984e+01
8.253040693999999178e+00 0.000000000000000000e+00 0.000000000000000000e+00 -4.009865031000000357e+00 7.152633185000000005e+00 0.000000000000000000e+00 4.936309919999999907e-01 4.249884200000000195e-02 1.057711324499999961e+01
8.253046022999999565e+00 0.000000000000000000e+00 0.000000000000000000e+00 -4.009866890999999711e+00 7.152634974999999784e+00 0.000000000000000000e+00 4.936312389999999994e-01 4.249967600000000012e-02 1.057711603799999978e+01
8.253053295999999150e+00 0.000000000000000000e+00 0.000000000000000000e+00 -4.009869433999999622e+00 7.152637421999999745e+00 0.000000000000000000e+00 4.936315250000000154e-01 4.250075200000000275e-02 1.057711979699999993e+01
8.253062233999999719e+00 0.000000000000000000e+00 0.000000000000000000e+00 -4.009872567000000387e+00 7.152640437999999712e+00 0.000000000000000000e+00 4.936318190000000272e-01 4.250199600000000022e-02 1.057712435700000064e+01
8.253072404999999279e+00 0.000000000000000000e+00 0.000000000000000000e+00 -4.009876138000000090e+00 7.152643877000000039e+00 0.000000000000000000e+00 4.936320860000000255e-01 4.250331200000000142e-02 1.057712947199999931e+01
8.253083982999999790e+00 0.000000000000000000e+00 0.000000000000000000e+00 -4.009880210000000389e+00 7.152647799000000362e+00 0.000000000000000000e+00 4.936323129999999892e-01 4.250468500000000038e-02 1.057713520699999954e+01
8.253097355999999607e+00 0.000000000000000000e+00 0.000000000000000000e+00 -4.009884923999999629e+00 7.152652344999999912e+00 0.000000000000000000e+00 4.936324859999999815e-01 4.250611399999999762e-02 1.057714173299999949e+01
8.253112155000000172e+00 0.000000000000000000e+00 0.000000000000000000e+00 -4.009890152999999735e+00 7.152657396000000389e+00 0.000000000000000000e+00 4.936325790000000158e-01 4.250750600000000046e-02 1.057714884600000005e+01
8.125813233000000579e+00 0.000000000000000000e+00 0.000000000000000000e+00 -3.945114390000000082e+00 7.223857166000000163e+00 0.000000000000000000e+00 5.203492320000000504e-01 -1.873612920000000126e-01 1.094541596800000072e+01
8.125814806999999362e+00 0.000000000000000000e+00 0.000000000000000000e+00 -3.945114870999999912e+00 7.223858734000000226e+00 0.000000000000000000e+00 5.203493369999999674e-01 -1.873623460000000129e-01 1.094541931300000037e+01
8.125817759000000251e+00 0.000000000000000000e+00 0.000000000000000000e+00 -3.945115804999999920e+00 7.223861646999999664e+00 0.000000000000000000e+00 5.203495190000000381e-01 -1.873643670000000039e-01 1.094542562300000021e+01
8.125822165000000652e+00 0.000000000000000000e+00 0.000000000000000000e+00 -3.945117226999999893e+00 7.223865969000000220e+00 0.000000000000000000e+00 5.203497729999999599e-01 -1.873673939999999927e-01 1.094543505200000055e+01
8.125828202999999306e+00 0.000000000000000000e+00 0.000000000000000000e+00 -3.945119200000000159e+00 7.223871867999999807e+00 0.000000000000000000e+00 5.203501019999999810e-01 -1.873715250000000110e-01 1.094544797100000011e+01
8.125835681999999949e+00 0.000000000000000000e+00 0.000000000000000000e+00 -3.945121670999999886e+00 7.223879145999999807e+00 0.000000000000000000e+00 5.203504860000000010e-01 -1.873766179999999948e-01 1.094546397400000082e+01
8.125844241999999440e+00 0.000000000000000000e+00 0.000000000000000000e+00 -3.945124530999999823e+00 7.223887447000000073e+00 0.000000000000000000e+00 5.203508989999999779e-01 -1.873824269999999903e-01 1.094548229499999970e+01
8.125853983000000724e+00 0.000000000000000000e+00 0.000000000000000000e+00 -3.945127821999999895e+00 7.223896856999999727e+00 0.000000000000000000e+00 5.203513370000000249e-01 -1.873890229999999879e-01 1.094550315300000065e+01
8.125865265999999920e+00 0.000000000000000000e+00 0.000000000000000000e+00 -3.945131673000000117e+00 7.223907719999999699e+00 0.000000000000000000e+00 5.203518040000000289e-01 -1.873966400000000032e-01 1.094552731799999989e+01
8.125877911999999981e+00 0.000000000000000000e+00 0.000000000000000000e+00 -3.945136032999999820e+00 7.223919856000000195e+00 0.000000000000000000e+00 5.203522839999999983e-01 -1.874051439999999957e-01 1.094555440399999924e+01
8.325986812000000015e+00 0.000000000000000000e+00 0.000000000000000000e+00 -3.892056429999999789e+00 7.079812534000000213e+00 0.000000000000000000e+00 4.305682470000000150e-01 -5.293394700000000203e-02 1.060939138800000059e+01
8.325989161000000749e+00 0.000000000000000000e+00 0.000000000000000000e+00 -3.892056574000000158e+00 7.079812790000000078e+00 0.000000000000000000e+00 4.305680579999999757e-01 -5.293372500000000092e-02 1.060939271600000033e+01
8.325993575000000035e+00 0.000000000000000000e+00 0.000000000000000000e+00 -3.892056821000000166e+00 7.079813214999999715e+00 0.000000000000000000e+00 4.305677050000000228e-01 -5.293329900000000310e-02 1.060939514600000066e+01
8.326000191000000328e+00 0.000000000000000000e+00 0.000000000000000000e+00 -3.892057175999999785e+00 7.079813806999999848e+00 0.000000000000000000e+00 4.305672229999999989e-01 -5.293264500000000039e-02 1.060939873300000080e+01
8.326009262999999549e+00 0.000000000000000000e+00 0.000000000000000000e+00 -3.892057646000000037e+00 7.079814576999999609e+00 0.000000000000000000e+00 4.305666570000000193e-01 -5.293173100000000270e-02 1.060940359299999969e+01
8.326020455000000098e+00 0.000000000000000000e+00 0.000000000000000000e+00 -3.892058206000000187e+00 7.079815480999999799e+00 0.000000000000000000e+00 4.305660809999999894e-01 -5.293058600000000169e-02 1.060940952400000015e+01
8.326033273000000179e+00 0.000000000000000000e+00 0.000000000000000000e+00 -3.892058821000000002e+00 7.079816458999999895e+00 0.000000000000000000e+00 4.305655489999999919e-01 -5.292926399999999670e-02 1.060941623499999942e+01
8.326048013999999498e+00 0.000000000000000000e+00 0.000000000000000000e+00 -3.892059494000000175e+00 7.079817514000000145e+00 0.000000000000000000e+00 4.305650819999999879e-01 -5.292773700000000248e-02 1.060942385100000074e+01
8.326065179000000427e+00 0.000000000000000000e+00 0.000000000000000000e+00 -3.892060238000000005e+00 7.079818666999999621e+00 0.000000000000000000e+00 4.305647240000000098e-01 -5.292595900000000159e-02 1.060943260500000029e+01
8.326084277999999728e+00 0.000000000000000000e+00 0.000000000000000000e+00 -3.892061024000000202e+00 7.079819871999999847e+00 0.000000000000000000e+00 4.305645439999999935e-01 -5.292398799999999820e-02 1.060944222000000003e+01
