2.204886303925579050e+00 1.291083480144403550e+00 2.013232860391369616e+00 2.025460384583977480e-01 4.933641942802622360e+00 2.013235271254598224e+00 6.285894622672320686e+00 1.291087498648962884e+00 2.013230924780258668e+00 4.283554357205139773e+00 4.933645961307181693e+00 2.013233335643486832e+00 3.022883723622147301e-01 2.580737662282844624e+00 8.659062028569231018e+00 -1.700052165704095675e+00 6.223286149970880921e+00 8.659054418172079437e+00 4.383296636156885029e+00 2.580731680966382058e+00 8.659060069298062601e+00 2.380956370689704560e+00 6.223290143624600645e+00 8.659062480161290765e+00 4.246565911401996907e+00 6.772004388732653979e+00 2.157892036687784551e-02 6.248916391996420572e+00 3.129445846799664643e+00 2.158628932424909788e-02 1.655575926552551314e-01 6.772000370228094646e+00 2.158085597798885952e-02 2.167907910554692119e+00 3.129451852966967262e+00 2.157825099509521824e-02 2.295895366336071053e+00 1.271251809524709842e+00 7.330718817081767646e+00 2.935551008688897512e-01 4.913810272182929317e+00 7.330721227944996699e+00 6.376903685082813134e+00 1.271255828029269175e+00 7.330716881470657142e+00 4.374563364663560883e+00 4.913804290866465863e+00 7.330719268673827393e+00 1.794607234932149853e-01 2.547080549565012841e+00 3.334253912849302726e+00 -1.822879541973966289e+00 6.189639012223231873e+00 3.334256323712530445e+00 4.260469042239957815e+00 2.547084568069572175e+00 3.334251977238191333e+00 2.258128721820704676e+00 6.189633030906768418e+00 3.334254364441362917e+00
2.205875586027624013e+00 1.287815936351042856e+00 2.009872402305075578e+00 1.979773612336057920e-01 4.932599404028512602e+00 2.012231875559213901e+00 6.287658209524360942e+00 1.295288716981404020e+00 2.008651882024756752e+00 4.282345309917193532e+00 4.937747362410926932e+00 2.015480381480842187e+00 3.047681193594469762e-01 2.583043362740453652e+00 8.659363859875886860e+00 -1.702317525543998178e+00 6.218818570148050284e+00 8.659032615599015159e+00 4.385007275695285145e+00 2.588392579433455687e+00 8.658991859086903276e+00 2.382714002192853009e+00 6.224857399735002517e+00 8.660378436224279497e+00 4.244644776556182109e+00 6.772166424004518959e+00 2.518200032127729596e-02 6.250521852614593143e+00 3.120456431518785489e+00 2.176905097863256547e-02 1.626238153169845824e-01 6.765667532081272917e+00 2.531986834594271082e-02 2.169388298943734750e+00 3.129759335780653462e+00 1.920622554942810409e-02 2.289901800956684053e+00 1.271221691265963738e+00 7.332009500016365422e+00 2.953236217967656896e-01 4.919647578137579913e+00 7.327796540941478476e+00 6.379732598436942403e+00 1.271424927196719734e+00 7.328755260140965788e+00 4.372846862895613640e+00 4.916100349655043722e+00 7.332162679836391028e+00 1.775124085065897250e-01 2.541466068571347048e+00 3.327950852345432864e+00 -1.822697384097832662e+00 6.187855608844291311e+00 3.335258167683151420e+00 4.263923853164508060e+00 2.544117916036096716e+00 3.337470183929571732e+00 2.260368421186084387e+00 6.190525064472581995e+00 3.340879424469174630e+00
2.206902839768004387e+00 1.284458350250829994e+00 2.006440877273695911e+00 1.932786619115278992e-01 4.931547572921807898e+00 2.011231287385597089e+00 6.289470211595660665e+00 1.299599909240217066e+00 2.003972035521869977e+00 4.281089003477662303e+00 4.941988809132505267e+00 2.017818826483622097e+00 3.073382273180335078e-01 2.585418572075533383e+00 8.659663896837793473e+00 -1.704633860504026543e+00 6.214211289902207724e+00 8.659001572864802654e+00 4.386788777964803820e+00 2.596253117834240953e+00 8.658912600647846958e+00 2.384542705710652744e+00 6.226464174543496988e+00 8.661732953229885013e+00 4.242665123765707591e+00 6.772278587579546816e+00 2.886625008061436889e-02 6.252185214496339682e+00 3.111166744281685048e+00 2.192980184743487104e-02 1.596004835038800640e-01 6.759094989225800987e+00 2.914025373962912668e-02 2.170916496341405821e+00 3.130026770680279125e+00 1.674303847999272440e-02 2.283722417809355587e+00 1.271192134692420872e+00 7.333494275499989890e+00 2.971249197752539595e-01 4.925674518564263415e+00 7.324951631001755281e+00 6.382613894532870091e+00 1.271633504500581990e+00 7.326892621462903321e+00 4.371064953020413313e+00 4.918476315448834235e+00 7.333797759779413283e+00 1.755059914685992706e-01 2.535722706926915482e+00 3.321308654782608727e+00 -1.822508223002286654e+00 6.186042474768441934e+00 3.336129753853977586e+00 4.267476622679003739e+00 2.541100919123261193e+00 3.340606114333015686e+00 2.262658763061120126e+00 6.191456775314466476e+00 3.347523485780993902e+00
2.207921676825376434e+00 1.281150668335768072e+00 2.003069673907383219e+00 1.886416361340285952e-01 4.930525240607708248e+00 2.010299447109059390e+00 6.291243853012847609e+00 1.303851096234515117e+00 1.999382896339795712e+00 4.279833293144577056e+00 4.946180157035435343e+00 2.020197143756064406e+00 3.098976832602957088e-01 2.587753885531623776e+00 8.659944061933996906e+00 -1.706899714967346160e+00 6.209653711138878762e+00 8.658979557735630550e+00 4.388559623896298945e+00 2.603993711948489498e+00 8.658833276038977900e+00 2.386341362525054244e+00 6.228061112011859635e+00 8.663088100293547811e+00 4.240713502661054513e+00 6.772350787259535210e+00 3.246977137839402588e-02 6.253817282483306705e+00 3.101957417478093948e+00 2.201141444210185857e-02 1.566154028253761155e-01 6.752562451608378424e+00 3.286988479616660686e-02 2.172434694204644856e+00 3.130254235794275974e+00 1.428997228714163140e-02 2.277606612248410212e+00 1.271181852925844957e+00 7.335137753207797040e+00 2.989000864190683449e-01 4.931651150381227033e+00 7.322297210895102992e+00 6.385439451394189447e+00 1.271861935007732924e+00 7.325221290941117402e+00 4.369295707913783744e+00 4.920861927680703296e+00 7.335552616968181283e+00 1.735480978463075641e-01 2.530069294932070445e+00 3.314575603056274300e+00 -1.822322324058127441e+00 6.184269737378124354e+00 3.336841473667651492e+00 4.270974946539741524e+00 2.538144739556134066e+00 3.343523328360872959e+00 2.264913618921933658e+00 6.192419294661467788e+00 3.353908334186601170e+00
2.208933569963060339e+00 1.277962765900739983e+00 1.999808945464935706e+00 1.841464258590956304e-01 4.929521947581879004e+00 2.009444585115969240e+00 6.292960765625783104e+00 1.307942141389545343e+00 1.994984639031552875e+00 4.278586812822688934e+00 4.950271477902644435e+00 2.022565007855954278e+00 3.124063871314405327e-01 2.590029523509923770e+00 8.660205178269533732e+00 -1.709095090320093657e+00 6.205225775382701592e+00 8.658946327092570172e+00 4.390308666106471414e+00 2.611484471070228075e+00 8.658733799521121099e+00 2.388108936520580095e+00 6.229618314680499758e+00 8.664403814349133981e+00 4.238828596460485265e+00 6.772382954976642111e+00 3.593170564668407563e-02 6.255409047856928417e+00 3.093008503074461846e+00 2.201453153534866855e-02 1.536879737576232474e-01 6.746159933052308766e+00 3.645854909302716912e-02 2.173923712829427313e+00 3.130431741013304681e+00 1.188742841530870953e-02 2.271663430932729710e+00 1.271180349117911224e+00 7.336897523141468369e+00 3.005997802571321875e-01 4.937457600740143171e+00 7.319894069882621146e+00 6.388149991949429563e+00 1.272120473258339546e+00 7.323772591313404412e+00 4.367557976662158836e+00 4.923207180287415774e+00 7.337386705787094066e+00 1.716819335221976273e-01 2.524615315617225075e+00 3.307871056835955503e+00 -1.822139250527325283e+00 6.182577371775710873e+00 3.337403417732814237e+00 4.274368078548175021e+00 2.535309774044469222e+00 3.346173068151579333e+00 2.267070716795521079e+00 6.193393199092890100e+00 3.359935251366934494e+00
2.209984635154822463e+00 1.274744720418782729e+00 1.996517282480680056e+00 1.796323639714368370e-01 4.928528638656419325e+00 2.008640171100220861e+00 6.294668061033514839e+00 1.312023190748235590e+00 1.990606571712087769e+00 4.277292741539304721e+00 4.954402821090867270e+00 2.025034032563900244e+00 3.149548099996036243e-01 2.592334991633344021e+00 8.660445499679070736e+00 -1.711300900866040919e+00 6.200757918420940484e+00 8.658903222795313326e+00 4.392097372363022778e+00 2.618995060259071472e+00 8.658613504725822807e+00 2.389877545703964046e+00 6.231205415953449567e+00 8.665759590903290288e+00 4.236933200796745069e+00 6.772365202590831856e+00 3.938374313173950009e-02 6.257007977170021995e+00 3.083979808640129772e+00 2.190726890007287792e-02 1.507295129051920979e-01 6.739647629423459740e+00 4.002761229561488387e-02 2.175451631174982303e+00 3.130569128516860200e+00 9.443929017464967185e-03 2.265684612167652379e+00 1.271178564740748529e+00 7.338858116562164469e+00 3.023030682761613797e-01 4.943323676141133660e+00 7.317641035601111454e+00 6.390844239236751712e+00 1.272418720521535818e+00 7.322484384160932613e+00 4.365803409334816365e+00 4.925612216226816997e+00 7.339351341998664680e+00 1.698309208824644312e-01 2.519151773842601472e+00 3.300946104582424656e+00 -1.821949389130343322e+00 6.180895323945325259e+00 3.337815204468091324e+00 4.277777070131985937e+00 2.532475171077550602e+00 3.348632418679110323e+00 2.269214772430097504e+00 6.194407529346282359e+00 3.365812518065006032e+00
2.211102956932335495e+00 1.271426544579613127e+00 1.993123881996156310e+00 1.749791509210357199e-01 4.927485968546691630e+00 2.007888675105874210e+00 6.296413935111669247e+00 1.316164220603719404e+00 1.986147793451984889e+00 4.275903600163577956e+00 4.958674234237405720e+00 2.027695519578378569e+00 3.176334780753587994e-01 2.594729776503454044e+00 8.660673204949606685e+00 -1.713567302014826987e+00 6.196140366780714004e+00 8.658871067380330189e+00 4.393986883067439564e+00 2.626735151959327830e+00 8.658471580232419029e+00 2.391698161298593028e+00 6.232882070633792182e+00 8.667184473663446909e+00 4.234979286427544842e+00 6.772297578995257972e+00 4.291694845398889152e-02 6.258652305896745816e+00 3.074631171103975547e+00 2.166819025999385320e-02 1.476410694424540315e-01 6.732855864371477317e+00 4.366882655259471391e-02 2.177037192962332224e+00 3.130676438602139733e+00 6.899075308262317754e-03 2.259491290932978735e+00 1.271177357354274173e+00 7.341073440699787511e+00 3.040597298940876936e-01 4.949409227837786140e+00 7.315487408331101449e+00 6.393591851611879484e+00 1.272776347762242244e+00 7.321335195487171710e+00 4.363973767574581331e+00 4.928157213897422118e+00 7.341508004949099941e+00 1.679598906946783710e-01 2.513529333480448269e+00 3.293601092019366572e+00 -1.821762414044313161e+00 6.179163575541638309e+00 3.338106901220346145e+00 4.281293092868735606e+00 2.529580269275705451e+00 3.350969259609150264e+00 2.271389423034419153e+00 6.195491670697755637e+00 3.371699293626597704e+00
2.212280718209492125e+00 1.268088091908380122e+00 1.989709132737409902e+00 1.703078466929518475e-01 4.926433183509375979e+00 2.007227570150551532e+00 6.298150787698274300e+00 1.320245156397801933e+00 1.981749077487798605e+00 4.274467085223070839e+00 4.962985645021155356e+00 2.030468164921213514e+00 3.203519197144980568e-01 2.597164391394316318e+00 8.660880138952888885e+00 -1.715844028972032254e+00 6.191502893557469633e+00 8.658829085540984849e+00 4.395915892575984252e+00 2.634465074468727241e+00 8.658308766618477037e+00 2.393529863993121953e+00 6.234598569446333727e+00 8.668649224852210011e+00 4.233034496962164717e+00 6.772189976126936628e+00 4.641985000091249786e-02 6.260293205139502604e+00 3.065252906700163482e+00 2.127907776133094314e-02 1.445011636896991192e-01 6.725954472801040751e+00 4.727088004272236854e-02 2.178661817049991178e+00 3.130733606381054024e+00 4.323240070783850031e-03 2.253282054317029992e+00 1.271165785700693052e+00 7.343479131573587004e+00 3.058003706479588413e-01 4.955544463950075418e+00 7.313504294879804135e+00 6.396313718144920557e+00 1.273193688652235256e+00 7.320366759797434675e+00 4.362126636369869637e+00 4.930762069650373114e+00 7.343765222613646948e+00 1.661441118127464645e-01 2.507917112630369427e+00 3.286034849615217635e+00 -1.821567943538838996e+00 6.177452070127878336e+00 3.338278457011111477e+00 4.284804382025198422e+00 2.526695913413223860e+00 3.353086177824627701e+00 2.273530710707685643e+00 6.196636396160932314e+00 3.377416906430514842e+00
2.213470712753902614e+00 1.264839384520623833e+00 1.986374359315538962e+00 1.658087311724945057e-01 4.925389224748942141e+00 2.006662762173548220e+00 6.299800807002279512e+00 1.324106088963240335e+00 1.977551752866127055e+00 4.273010676704462441e+00 4.967157067838377849e+00 2.033280904521781451e+00 3.230292811559730692e-01 2.599559324845903241e+00 8.661047858805686062e+00 -1.718039733962150928e+00 6.187014958197480929e+00 8.658795713438898645e+00 4.397822988244797671e+00 2.641925161016860368e+00 8.658125754281444486e+00 2.395291584525182316e+00 6.236315449927594123e+00 8.670115499939848647e+00 4.231156205491708455e+00 6.772042365681294029e+00 4.977116782524000638e-02 6.261882120562001219e+00 3.056185331197359911e+00 2.072182810508108736e-02 1.414283097736514228e-01 6.719193120222565874e+00 5.070178052384630152e-02 2.180267587271714991e+00 3.130760734392716405e+00 1.807754726587132215e-03 2.247265599317265217e+00 1.271152857520966295e+00 7.346010653309828164e+00 3.074852610742620507e-01 4.961499434036522160e+00 7.311762004200994980e+00 6.398910625560048970e+00 1.273651190115852483e+00 7.319621196934384955e+00 4.360330035763932521e+00 4.933346579632408080e+00 7.346051296400270658e+00 1.644405475199935962e-01 2.502514165386958922e+00 3.278516696277286702e+00 -1.821386187701207193e+00 6.175800966305792450e+00 3.338310405613548859e+00 4.288200046639008001e+00 2.523932874938389581e+00 3.354915844877549347e+00 2.275543813142081095e+00 6.197792719107772186e+00 3.382757246883889568e+00
2.214711567335028164e+00 1.261630329831897379e+00 1.983068584507525323e+00 1.613823720917262061e-01 4.924334562075854294e+00 2.006226375069187107e+00 6.301403169308177787e+00 1.327796924314237570e+00 1.973505079044515664e+00 4.271506672356666812e+00 4.971288465516749966e+00 2.036214609817095234e+00 3.257062619724139796e-01 2.601964307518562780e+00 8.661195607219097425e+00 -1.720204899697225454e+00 6.182586833190429232e+00 8.658771827771996499e+00 4.399748656317791884e+00 2.649245215771413253e+00 8.657911982489892466e+00 2.397014242289320141e+00 6.238082472506516929e+00 8.671612757507634939e+00 4.229305399783615194e+00 6.771834841853208609e+00 5.302171464656680461e-02 6.263437187109221149e+00 3.047248438963797490e+00 1.995558994397057459e-02 1.383429010734225362e-01 6.712442120107512622e+00 5.401295149448561567e-02 2.639102405933041684e+00 3.076696527879848819e+00 1.067880913271374688e+01 2.241332876777865746e+00 1.271109047059888697e+00 7.348720318705642462e+00 3.091341843676533863e-01 4.967394125623695089e+00 7.310220394876925987e+00 6.401421965536247427e+00 1.274158708526461181e+00 7.319067666911970527e+00 4.358535015361360010e+00 4.935980939657087951e+00 7.348397474321245681e+00 1.628451656465808306e-01 2.497220890759852985e+00 3.270886434115086505e+00 -1.821206551707775345e+00 6.174200134689699304e+00 3.338232499125002750e+00 4.291540449472436514e+00 2.521240753639345744e+00 3.356486828982055748e+00 2.277481331015858590e+00 6.199000093138979928e+00 3.387829295144185959e+00
2.236019999999999897e+00 1.254059999999999953e+00 1.997840000000000060e+00 2.061300000000000077e-01 4.813100000000000378e+00 1.999179999999999957e+00 6.358450000000000379e+00 1.252520000000000078e+00 1.997540000000000093e+00 4.326590000000000380e+00 4.816639999999999588e+00 2.003880000000000106e+00 3.728400000000000047e-01 2.486299999999999955e+00 8.587519999999999598e+00 -1.661299999999999999e+00 6.049229999999999663e+00 8.591459999999999653e+00 4.495180000000000398e+00 2.494299999999999962e+00 8.590700000000000003e+00 2.458019999999999872e+00 6.048119999999999941e+00 8.594139999999999446e+00 4.267129999999999868e+00 6.616929999999999978e+00 2.080999999999999864e-02 6.299170000000000158e+00 3.057659999999999823e+00 2.058000000000000107e-02 1.528400000000000036e-01 6.611670000000000158e+00 2.390000000000000110e-02 2.180550000000000210e+00 3.058590000000000142e+00 2.114999999999999866e-02 2.374159999999999826e+00 1.214089999999999892e+00 7.277140000000000164e+00 3.402299999999999769e-01 4.770109999999999850e+00 7.275909999999999656e+00 6.498719999999999608e+00 1.213119999999999976e+00 7.279399999999999871e+00 4.466840000000000366e+00 4.766580000000000261e+00 7.276290000000000369e+00 2.015800000000000092e-01 2.476100000000000190e+00 3.308860000000000134e+00 -1.827020000000000088e+00 6.034810000000000230e+00 3.308110000000000106e+00 4.324799999999999756e+00 2.481059999999999821e+00 3.313369999999999926e+00 2.289460000000000051e+00 6.035919999999999952e+00 3.308489999999999931e+00
2.237919999999999909e+00 1.254459999999999908e+00 1.997209999999999930e+00 2.067499999999999893e-01 4.810950000000000060e+00 1.997749999999999915e+00 6.359110000000000262e+00 1.261009999999999964e+00 1.998830000000000107e+00 4.331509999999999749e+00 4.816060000000000230e+00 2.002870000000000150e+00 3.711200000000000054e-01 2.489100000000000090e+00 8.589069999999999538e+00 -1.659310000000000063e+00 6.050679999999999836e+00 8.590139999999999887e+00 4.496979999999999755e+00 2.499140000000000139e+00 8.587120000000000530e+00 2.459010000000000140e+00 6.043650000000000411e+00 8.594450000000000145e+00 4.273150000000000226e+00 6.618990000000000151e+00 1.697999999999999857e-02 6.300099999999999589e+00 3.057760000000000034e+00 1.746999999999999942e-02 1.545300000000000007e-01 6.615759999999999863e+00 2.749000000000000055e-02 2.178240000000000176e+00 3.052529999999999966e+00 2.683999999999999928e-02 2.365810000000000191e+00 1.208860000000000046e+00 7.273749999999999716e+00 3.384400000000000186e-01 4.768909999999999982e+00 7.276440000000000019e+00 6.493890000000000384e+00 1.213340000000000085e+00 7.281240000000000379e+00 4.465700000000000003e+00 4.763819999999999943e+00 7.278100000000000236e+00 2.018800000000000039e-01 2.471639999999999837e+00 3.308419999999999916e+00 -1.834770000000000012e+00 6.036970000000000169e+00 3.305309999999999970e+00 4.322809999999999597e+00 2.478940000000000143e+00 3.318519999999999914e+00 2.292450000000000099e+00 6.033450000000000202e+00 3.310470000000000024e+00
2.239900000000000002e+00 1.254890000000000061e+00 1.996599999999999930e+00 2.074000000000000010e-01 4.808749999999999858e+00 1.996310000000000029e+00 6.359790000000000276e+00 1.269770000000000065e+00 2.000189999999999912e+00 4.336590000000000167e+00 4.815479999999999983e+00 2.001850000000000129e+00 3.693500000000000116e-01 2.491909999999999847e+00 8.590690000000000381e+00 -1.657249999999999890e+00 6.052109999999999879e+00 8.588820000000000121e+00 4.498829999999999885e+00 2.504039999999999822e+00 8.583479999999999777e+00 2.460039999999999782e+00 6.038979999999999571e+00 8.594799999999999329e+00 4.279349999999999987e+00 6.621089999999999698e+00 1.302000000000000032e-02 6.301070000000000171e+00 3.057859999999999800e+00 1.423999999999999919e-02 1.562699999999999922e-01 6.619979999999999976e+00 3.115000000000000061e-02 2.175889999999999880e+00 3.046289999999999942e+00 3.264000000000000234e-02 2.357219999999999871e+00 1.203559999999999963e+00 7.270310000000000272e+00 3.366100000000000203e-01 4.767759999999999998e+00 7.277029999999999887e+00 6.488909999999999734e+00 1.213610000000000078e+00 7.283179999999999765e+00 4.464509999999999756e+00 4.761090000000000266e+00 7.280000000000000249e+00 2.021699999999999886e-01 2.467060000000000031e+00 3.307869999999999866e+00 -1.842750000000000110e+00 6.039209999999999745e+00 3.302340000000000053e+00 4.320730000000000182e+00 2.476750000000000007e+00 3.323710000000000164e+00 2.295500000000000096e+00 6.030910000000000437e+00 3.312390000000000168e+00
2.241870000000000029e+00 1.255319999999999991e+00 1.996029999999999971e+00 2.080500000000000127e-01 4.806600000000000428e+00 1.994909999999999961e+00 6.360450000000000159e+00 1.278429999999999955e+00 2.001580000000000137e+00 4.341599999999999682e+00 4.814910000000000245e+00 2.000849999999999795e+00 3.675999999999999823e-01 2.494610000000000216e+00 8.592340000000000089e+00 -1.655200000000000005e+00 6.053460000000000285e+00 8.587540000000000617e+00 4.500639999999999752e+00 2.508779999999999788e+00 8.579929999999999168e+00 2.461069999999999869e+00 6.034309999999999619e+00 8.595169999999999533e+00 4.285510000000000375e+00 6.623160000000000380e+00 9.069999999999999937e-03 6.302039999999999864e+00 3.057970000000000077e+00 1.102999999999999987e-02 1.580199999999999938e-01 6.624159999999999826e+00 3.472000000000000086e-02 2.173589999999999911e+00 3.040129999999999999e+00 3.828999999999999765e-02 2.348720000000000141e+00 1.198409999999999975e+00 7.266969999999999708e+00 3.347899999999999765e-01 4.766709999999999781e+00 7.277680000000000149e+00 6.483959999999999724e+00 1.213920000000000110e+00 7.285160000000000302e+00 4.463300000000000267e+00 4.758510000000000240e+00 7.281909999999999883e+00 2.024400000000000088e-01 2.462549999999999795e+00 3.307249999999999801e+00 -1.850640000000000063e+00 6.041409999999999947e+00 3.299310000000000187e+00 4.318660000000000387e+00 2.474580000000000002e+00 3.328730000000000189e+00 2.298500000000000210e+00 6.028419999999999668e+00 3.314179999999999904e+00
2.243819999999999926e+00 1.255740000000000078e+00 1.995509999999999895e+00 2.087100000000000066e-01 4.804520000000000124e+00 1.993579999999999908e+00 6.361089999999999911e+00 1.286869999999999958e+00 2.003000000000000114e+00 4.346479999999999677e+00 4.814379999999999882e+00 1.999880000000000102e+00 3.659100000000000130e-01 2.497149999999999981e+00 8.593980000000000175e+00 -1.653189999999999937e+00 6.054719999999999658e+00 8.586349999999999483e+00 4.502369999999999983e+00 2.513279999999999959e+00 8.576539999999999608e+00 2.462070000000000203e+00 6.029709999999999681e+00 8.595579999999999998e+00 4.291520000000000223e+00 6.625160000000000160e+00 5.190000000000000169e-03 6.302979999999999805e+00 3.058110000000000106e+00 7.870000000000000259e-03 1.597600000000000131e-01 6.628239999999999910e+00 3.815999999999999948e-02 2.171380000000000088e+00 3.034139999999999837e+00 4.370999999999999885e-02 2.340430000000000010e+00 1.193480000000000096e+00 7.263760000000000439e+00 3.330299999999999927e-01 4.765769999999999840e+00 7.278349999999999653e+00 6.479129999999999612e+00 1.214239999999999986e+00 7.287139999999999951e+00 4.462100000000000399e+00 4.756129999999999747e+00 7.283760000000000012e+00 2.026699999999999890e-01 2.458159999999999901e+00 3.306550000000000100e+00 -1.858319999999999972e+00 6.043560000000000265e+00 3.296269999999999811e+00 4.316620000000000346e+00 2.472459999999999880e+00 3.333520000000000039e+00 2.301400000000000112e+00 6.026019999999999932e+00 3.315770000000000106e+00
2.245820000000000149e+00 1.256150000000000100e+00 1.995030000000000081e+00 2.093899999999999928e-01 4.802430000000000199e+00 1.992280000000000051e+00 6.361720000000000041e+00 1.295409999999999950e+00 2.004490000000000105e+00 4.351399999999999935e+00 4.813860000000000028e+00 1.998899999999999899e+00 3.642099999999999782e-01 2.499629999999999797e+00 8.595679999999999765e+00 -1.651129999999999987e+00 6.055939999999999657e+00 8.585179999999999367e+00 4.504089999999999705e+00 2.517720000000000180e+00 8.573169999999999291e+00 2.463089999999999780e+00 6.025000000000000355e+00 8.596040000000000347e+00 4.297629999999999839e+00 6.627150000000000318e+00 1.240000000000000000e-03 6.303919999999999746e+00 3.058279999999999887e+00 4.660000000000000080e-03 1.615600000000000092e-01 6.632369999999999877e+00 4.159999999999999809e-02 2.169179999999999886e+00 3.028080000000000105e+00 4.909000000000000169e-02 2.332009999999999916e+00 1.188620000000000010e+00 7.260559999999999903e+00 3.312499999999999889e-01 4.764910000000000423e+00 7.279080000000000439e+00 6.474210000000000242e+00 1.214590000000000058e+00 7.289200000000000124e+00 4.460860000000000269e+00 4.753860000000000419e+00 7.285630000000000273e+00 2.028899999999999870e-01 2.453749999999999876e+00 3.305769999999999875e+00 -1.866060000000000052e+00 6.045729999999999826e+00 3.293099999999999916e+00 4.314530000000000420e+00 2.470310000000000006e+00 3.338260000000000005e+00 2.304320000000000146e+00 6.023620000000000196e+00 3.317239999999999966e+00
2.247939999999999827e+00 1.256559999999999899e+00 1.994569999999999954e+00 2.101300000000000112e-01 4.800290000000000390e+00 1.990969999999999906e+00 6.362350000000000172e+00 1.304270000000000040e+00 2.006130000000000191e+00 4.356499999999999595e+00 4.813329999999999664e+00 1.997880000000000100e+00 3.624399999999999844e-01 2.502099999999999991e+00 8.597479999999999123e+00 -1.648979999999999890e+00 6.057150000000000034e+00 8.584020000000000650e+00 4.505819999999999936e+00 2.522190000000000154e+00 8.569739999999999469e+00 2.464150000000000063e+00 6.020069999999999588e+00 8.596569999999999823e+00 4.855220000000000091e+00 6.533590000000000231e+00 1.059605999999999959e+01 6.304890000000000327e+00 3.058499999999999996e+00 1.299999999999999940e-03 1.634799999999999864e-01 6.636669999999999625e+00 4.513000000000000345e-02 2.166939999999999866e+00 3.021809999999999885e+00 5.453000000000000208e-02 2.323249999999999815e+00 1.183689999999999909e+00 7.257279999999999731e+00 3.294000000000000261e-01 4.764109999999999623e+00 7.279889999999999972e+00 6.469089999999999563e+00 1.214970000000000105e+00 7.291400000000000325e+00 4.459529999999999994e+00 4.751669999999999838e+00 7.287550000000000416e+00 2.030899999999999928e-01 2.449199999999999822e+00 3.304870000000000196e+00 -1.874069999999999903e+00 6.047970000000000290e+00 3.289730000000000043e+00 4.312350000000000350e+00 2.468090000000000117e+00 3.343069999999999986e+00 2.307319999999999816e+00 6.021160000000000068e+00 3.318579999999999863e+00
2.250100000000000211e+00 1.256950000000000012e+00 1.994150000000000089e+00 2.109000000000000041e-01 4.798169999999999824e+00 1.989700000000000024e+00 6.362960000000000171e+00 1.313169999999999948e+00 2.007859999999999978e+00 4.361600000000000144e+00 4.812809999999999810e+00 1.996850000000000014e+00 3.606800000000000006e-01 2.504469999999999974e+00 8.599320000000000519e+00 -1.646789999999999976e+00 6.058309999999999640e+00 8.582900000000000418e+00 4.507509999999999906e+00 2.526549999999999851e+00 8.566359999999999530e+00 2.465209999999999901e+00 6.015080000000000204e+00 8.597160000000000579e+00 4.861659999999999648e+00 6.535599999999999632e+00 1.059187000000000012e+01 6.857050000000000090e+00 2.963169999999999860e+00 1.059689000000000014e+01 1.654799999999999882e-01 6.641000000000000014e+00 4.864999999999999880e-02 2.164719999999999978e+00 3.015530000000000044e+00 5.985000000000000042e-02 2.314389999999999947e+00 1.178870000000000084e+00 7.254030000000000200e+00 3.275500000000000078e-01 4.763399999999999856e+00 7.280739999999999768e+00 6.463910000000000267e+00 1.215349999999999930e+00 7.293680000000000163e+00 4.458160000000000345e+00 4.749629999999999797e+00 7.289430000000000298e+00 2.032799999999999885e-01 2.444659999999999833e+00 3.303910000000000124e+00 -1.882060000000000066e+00 6.050220000000000375e+00 3.286249999999999893e+00 4.310139999999999638e+00 2.465850000000000097e+00 3.347799999999999887e+00 2.310329999999999995e+00 6.018720000000000070e+00 3.319749999999999979e+00
2.252250000000000085e+00 1.257300000000000084e+00 1.993800000000000017e+00 2.116800000000000070e-01 4.796129999999999782e+00 1.988499999999999934e+00 6.363520000000000287e+00 1.321819999999999995e+00 2.009640000000000093e+00 4.366530000000000022e+00 4.812310000000000088e+00 1.995840000000000058e+00 3.589800000000000213e-01 2.506650000000000045e+00 8.601139999999999119e+00 -1.644630000000000036e+00 6.059389999999999610e+00 8.581870000000000331e+00 4.509079999999999977e+00 2.530629999999999935e+00 8.563159999999999883e+00 2.466239999999999988e+00 6.010180000000000078e+00 8.597789999999999822e+00 4.867950000000000443e+00 6.537519999999999776e+00 1.058775999999999939e+01 6.857949999999999768e+00 2.963490000000000180e+00 1.059360999999999997e+01 1.674900000000000000e-01 6.645220000000000127e+00 5.202999999999999986e-02 2.162599999999999856e+00 3.009459999999999802e+00 6.486000000000000099e-02 2.305719999999999992e+00 1.174320000000000030e+00 7.250899999999999679e+00 3.257499999999999840e-01 4.762809999999999988e+00 7.281609999999999694e+00 6.458849999999999980e+00 1.215710000000000068e+00 7.295960000000000001e+00 4.456800000000000317e+00 4.747819999999999929e+00 7.291210000000000413e+00 2.034400000000000097e-01 2.440290000000000070e+00 3.302909999999999791e+00 -1.889790000000000081e+00 6.052380000000000315e+00 3.282799999999999940e+00 4.307990000000000208e+00 2.463690000000000158e+00 3.352310000000000123e+00 2.313239999999999963e+00 6.016379999999999839e+00 3.320699999999999985e+00