-7.210196335000000545e+01
-7.209861078000000134e+01
-7.209188115000000607e+01
-7.208201071999999954e+01
-7.206945548999999573e+01
-7.205396627999999737e+01
-7.203501513999999872e+01
-7.201306827999999882e+01
-7.198918738000000417e+01
-7.196328185000000133e+01
-7.221353682000000163e+01
-7.220925753000000213e+01
-7.220063838999999462e+01
-7.218800530999999410e+01
-7.217190757000000190e+01
-7.215194981999999868e+01
-7.212748514999999827e+01
-7.209921069000000671e+01
-7.206840257999999722e+01
-7.203469741000000681e+01
-7.219320745999999644e+01
-7.219259110999999507e+01
-7.218888857999999686e+01
-7.218223342000000287e+01
-7.217298963999999728e+01
-7.216093204000000583e+01
-7.214564138999999443e+01
-7.212757333000000415e+01
-7.210756358999999804e+01
-7.208534957000000531e+01
-7.194124868999999478e+01
-7.194132229000000223e+01
-7.193905152000000669e+01
-7.193446267999999577e+01
-7.192784548999999572e+01
-7.191908637999999598e+01
-7.190777654999999413e+01
-7.189409129999999948e+01
-7.187867568999999435e+01
-7.186150969999999916e+01
-7.206513510000000622e+01
-7.206357620999999369e+01
-7.205960858000000258e+01
-7.205337758999999664e+01
-7.204519028999999364e+01
-7.203482744000000082e+01
-7.202197366999999417e+01
-7.200709430000000566e+01
-7.199089497999999310e+01
-7.197314248000000703e+01
