-1.635108514584870942e-02 5.256261872199967378e-02 7.107955588380455991e-02 -1.635861369960833062e-02 5.261675028546063809e-02 7.104184521269464592e-02 -1.635014562898619295e-02 5.255561588997518380e-02 7.107851778376031437e-02 -1.635964685111555503e-02 5.260275100825501093e-02 7.104383338665160030e-02 4.451726861534061747e-02 -4.712487750144057214e-02 -1.673603063763420828e-02 4.451088515447185201e-02 -4.709978565251195237e-02 -1.675983506043084159e-02 4.452440734950344203e-02 -4.714294261195528524e-02 -1.672522831118831987e-02 4.451438217716076340e-02 -4.715189051202829662e-02 -1.672403206548494711e-02 2.936240808167653576e-03 -9.075645091654996333e-02 -4.915824021411170641e-02 2.932377683412686585e-03 -9.075944648887201982e-02 -4.915116188001455999e-02 2.931399483977097011e-03 -9.076344594505568464e-02 -4.914915004600072662e-02 2.933301363022494147e-03 -9.075744202672483829e-02 -4.915517796610414242e-02 -3.402911769890990673e-02 3.689328467642759291e-02 3.209513346356699937e-01 -3.404115755617332512e-02 3.690536219579067939e-02 3.209466255632442144e-01 -3.403627863002432058e-02 3.690334744504075726e-02 3.209415131412107214e-01 -3.402511299550625007e-02 3.689826530245025882e-02 3.209502595937773206e-01 2.080967024262146085e-03 4.881714956916088921e-02 -3.261662463226170927e-01 2.088894002962024717e-03 4.881211108967326018e-02 -3.261684318964878093e-01 2.082015364653310580e-03 4.881013431171656036e-02 -3.261622856225004363e-01 2.073892287478950290e-03 4.881119274346715220e-02 -3.261681075929098728e-01
3.239465215119821662e-03 6.318487974366146509e-02 7.795822118865379513e-02 2.372389363128199133e-02 4.732088974601504627e-02 1.076030740946424258e-01 -3.357196850021813839e-02 -2.056963756107433455e-02 1.211976502768366409e-01 -3.209819381817218681e-02 2.078337892026011977e-02 1.020197376406543344e-01 3.920753721157651389e-02 -4.111836059779338387e-02 -3.120401104910515075e-02 5.322332311589697551e-02 -1.139586235203725491e-02 -1.598254493984759342e-02 4.247721439907025526e-02 -1.030154897088488980e-01 -2.864538018496988470e-02 2.213937849948809100e-02 -2.987731313049066598e-02 -7.557918348263276132e-03 1.346419148414960271e-02 -9.193251214514881753e-02 -6.978925135262752100e-02 -6.389126055704748286e-03 -4.047708405112745295e-02 -8.771357994040762662e-02 3.941512661724826290e-03 -7.449470294506568835e-02 -7.324148705524681502e-02 4.891274361545572269e-03 -9.009276973395104193e-02 -3.749834364055781855e-02 -2.404119768411306507e-03 3.018289176714936128e-02 3.274969207026406370e-01 -3.938436830977281450e-02 1.094049242111884424e-02 3.385996302470273278e-01 -5.499751505364101900e-02 4.759562985782868350e-02 3.374652646752864249e-01 -2.486933205800586841e-02 3.900459151931912061e-02 2.970274804178895112e-01 2.625980292077060088e-02 7.396476466103471537e-02 -3.092739440289143382e-01 1.021358131711627704e-03 5.315951148233995227e-02 -3.195988171419377744e-01 -1.754505357136127916e-02 6.366821422912753714e-02 -3.599572943809473680e-01 -2.533955390065666460e-02 5.266863145437132576e-02 -3.674727877378667906e-01
2.296911672552802083e-02 7.336481579624178073e-02 8.380251156756929332e-02 6.325632845716554209e-02 4.053820325486180015e-02 1.436664607936964100e-01 -5.198481904141906418e-02 -9.586130279489404882e-02 1.729727187873757177e-01 -4.801664305010509143e-02 -1.098179202907726207e-02 1.324835692228620854e-01 3.357369309397268548e-02 -3.510923050913782040e-02 -4.475571086563097378e-02 6.209816923429931079e-02 2.506352458704260572e-02 -1.450474408678187679e-02 4.071761706202679798e-02 -1.589581933282858128e-01 -3.905460325745822858e-02 -7.677012303928534235e-04 -1.186186563994512735e-02 2.481826617784278505e-03 2.407252335614688127e-02 -9.288850789312684542e-02 -9.105561754585093925e-02 -1.604084694729525362e-02 1.280225668923039295e-02 -1.292810843042264402e-01 4.777106462594438163e-03 -5.716724013359877898e-02 -9.849267278002203641e-02 6.773977638469580627e-03 -8.923597410888009507e-02 -2.571736385776738146e-02 2.979964743481964065e-02 2.270702140202652056e-02 3.324716307909719726e-01 -4.479809765555641671e-02 -1.539096368259433058e-02 3.558161540014229129e-01 -7.597755765916740234e-02 5.840647861509840055e-02 3.533715719917661646e-01 -1.548221845907634016e-02 4.135010809771714341e-02 2.712208086852713196e-01 5.175978933498664308e-02 1.000142346335714666e-01 -2.907327593180010772e-01 -2.027636708003413904e-04 5.766364571652608795e-02 -3.121291888682837801e-01 -3.724980444030764892e-02 7.837705022509484920e-02 -3.934699155363365342e-01 -5.241835845569409874e-02 5.636544321992618262e-02 -4.080229693784795386e-01
4.218546505475428976e-02 8.276370083090453522e-02 8.831871417138408009e-02 1.005468792715258769e-01 3.241894572554518406e-02 1.779829007399344465e-01 -7.061202974043059855e-02 -1.693628416419084848e-01 2.230925041701634359e-01 -6.335053072724852741e-02 -4.146652916063744282e-02 1.609933910784723532e-01 2.790166895714885770e-02 -2.903274218182861841e-02 -5.667902155832566652e-02 7.101908864135067501e-02 6.043157448256610692e-02 -1.215444869626093431e-02 3.966386461796627544e-02 -2.136889988214578651e-01 -4.766974666652461917e-02 -2.301429248565152116e-02 5.817626266744349919e-03 1.307949525040511853e-02 3.448885742205800436e-02 -9.359573708807297776e-02 -1.121981570510909854e-01 -2.581188470543487393e-02 6.745072571964820518e-02 -1.723059390846587435e-01 5.546773565323044088e-03 -3.895934525565131201e-02 -1.241893425873009105e-01 8.501166622062360928e-03 -8.815156819882477568e-02 -1.383140853824665201e-02 6.156389077770095530e-02 1.458565005072688138e-02 3.352927860824163608e-01 -5.005398791815258291e-02 -4.112753507507590361e-02 3.714513413021116595e-01 -9.627147276871825254e-02 6.885858037327034775e-02 3.675746457155604774e-01 -6.228765007615722112e-03 4.379196244413385841e-02 2.438919201568011674e-01 7.794062561238097875e-02 1.262224232365717902e-01 -2.702715379177733634e-01 -1.480752396501504049e-03 6.214667929082822589e-02 -3.032240961639809940e-01 -5.657224097426730158e-02 9.241235384130055963e-02 -4.246919817687399012e-01 -7.829296182164498241e-02 5.949056472690234659e-02 -4.455880644728589246e-01
6.064851128212748327e-02 9.187884627412272465e-02 9.193639142144846566e-02 1.362179192998495547e-01 2.329100424197254326e-02 2.108477338460626460e-01 -8.974680851441105278e-02 -2.423299141486124630e-01 2.725074957266382936e-01 -7.819933696565593839e-02 -7.081741204971558901e-02 1.880241180798692124e-01 2.207481628212220812e-02 -2.268441093789369881e-02 -6.732898133427625553e-02 7.986977061314824711e-02 9.501636201885602095e-02 -9.113405340747940050e-03 3.890784504681974593e-02 -2.677209973167719026e-01 -5.477627149163865478e-02 -4.468582549217890026e-02 2.301824123820145687e-02 2.397652969848837468e-02 4.455593638400665024e-02 -9.409953462574577321e-02 -1.327104383202859783e-01 -3.556770513056405764e-02 1.224924360894804054e-01 -2.154651800885930002e-01 6.547782446739753084e-03 -2.002785488789334684e-02 -1.498242344536412363e-01 9.905001531962687525e-03 -8.699442010643686218e-02 -1.930231073367635886e-03 9.287408229214991207e-02 6.079181879908316689e-03 3.358253174777952599e-01 -5.511075463373841382e-02 -6.600253312836537600e-02 3.855429654258250571e-01 -1.156380782690973746e-01 7.869076351819366544e-02 3.800075714839821761e-01 2.686384412624342674e-03 4.610335845856677189e-02 2.158508996196877305e-01 1.042801781766558022e-01 1.522017242335436393e-01 -2.481149329278293236e-01 -2.852735415318036379e-03 6.677414126995773191e-02 -2.934353867571358743e-01 -7.530447016119358461e-02 1.056851851790858721e-01 -4.532871581430519825e-01 -1.027031791275360290e-01 6.203911557029417184e-02 -4.799777023241318941e-01
7.890475024649493130e-02 1.009052203137598275e-01 9.466913682911574923e-02 1.716129010479701678e-01 1.297644082543373233e-02 2.424943341016519149e-01 -1.097333185040253317e-01 -3.160560384475175066e-01 3.222262114989334347e-01 -9.256193187049849280e-02 -1.003566368485032667e-01 2.132233552753047268e-01 1.561395180921437004e-02 -1.697582614502607043e-02 -7.661840537099019743e-02 8.904141070893120680e-02 1.303098975678051441e-01 -5.015332574371126999e-03 3.809700630220121814e-02 -3.229684759063580213e-01 -5.987114106591111262e-02 -6.661543341997831769e-02 4.032760343028456151e-02 3.558062098724711075e-02 5.417094439051696464e-02 -9.440760249469114240e-02 -1.529023171179688112e-01 -4.526727077078938899e-02 1.780334610762263348e-01 -2.605748726550275451e-01 6.945959597327455541e-03 -1.140896440405781689e-03 -1.755251323730723234e-01 1.137026577982982838e-02 -8.567879751066552474e-02 9.628921134914486188e-03 1.232989789979939133e-01 -3.057973178878629211e-03 3.353183002940481883e-01 -5.990079200331957510e-02 -8.993986807853271426e-02 3.987419002053723682e-01 -1.342971296523061131e-01 8.843024263653789796e-02 3.915166454755080738e-01 1.137566584355267918e-02 4.901664546389758459e-02 1.871171245505937053e-01 1.311339348312902664e-01 1.779755231151000094e-01 -2.256739618599571395e-01 -4.293327717095970705e-03 7.126622389115302991e-02 -2.829053426119939041e-01 -9.328419664604803430e-02 1.182629252213400761e-01 -4.806381413009095938e-01 -1.262142047803664069e-01 6.454927354971436160e-02 -5.120634533657559828e-01
9.720149874809932977e-02 1.101726594249137214e-01 9.685946944086168409e-02 2.072965262837910272e-01 1.028972839278100536e-03 2.738405220973870735e-01 -1.311977701296827004e-01 -3.915927340688866720e-01 3.726467632872357272e-01 -1.066643473742637932e-01 -1.305582306763643785e-01 2.371239720987306787e-01 8.248632520457124112e-03 -1.071484337619068271e-02 -8.481650957783018474e-02 9.859375762907909846e-02 1.663719181302049932e-01 1.126110774808413058e-04 3.749911560413106415e-02 -3.792524606842199719e-01 -6.356388469777646266e-02 -8.926715694782899613e-02 5.806969142526424710e-02 4.813573248872667770e-02 6.404473920990202962e-02 -9.464482400243343085e-02 -1.736297807954730876e-01 -5.565369252224326019e-02 2.373248563094373653e-01 -3.084439581971812339e-01 7.556038095960317981e-03 1.968237509158619891e-02 -2.026811795531260063e-01 1.274077892347155218e-02 -8.407435484575598306e-02 2.190902632918974649e-02 1.553467056123362944e-01 -1.319328987770866657e-02 3.323708965487153777e-01 -6.480976862378809433e-02 -1.146115077858306935e-01 4.110723904751929503e-01 -1.533077481771938644e-01 9.813361707102383202e-02 4.017729808914429213e-01 2.025951008694273567e-02 5.189908996736589814e-02 1.557514066440374711e-01 1.599885682354460215e-01 2.050947404073595326e-01 -2.000164239761570706e-01 -5.967611776572354435e-03 7.619046834877267471e-02 -2.706297194017663332e-01 -1.119041903816264671e-01 1.309169600959432522e-01 -5.070487739796536442e-01 -1.498620705910984341e-01 6.660216770455958113e-02 -5.428780574173193152e-01
1.158764164729587515e-01 1.188642467667582608e-01 9.768181202228289062e-02 2.420055648339201060e-01 -1.246376242850578096e-02 3.045929390999421171e-01 -1.535997501456545511e-01 -4.686112574228922245e-01 4.234701342311265604e-01 -1.206629539984747229e-01 -1.603925180001264383e-01 2.602340526063818271e-01 5.823977013222766345e-04 -4.277941947045056474e-03 -9.185734956776843430e-02 1.081198863572560148e-01 2.019041533898060237e-01 6.052003555825293153e-03 3.686862881540100417e-02 -4.356630820823307326e-01 -6.564484686398905366e-02 -1.117397711931239906e-01 7.585862167465814987e-02 6.118718124190211660e-02 7.375571642702696828e-02 -9.470917837819536889e-02 -1.943442680998417049e-01 -6.618451498546776279e-02 2.981448627889637382e-01 -3.574923851464369973e-01 8.171700821437992771e-03 4.155251629938892799e-02 -2.302098361232072232e-01 1.389136154988820579e-02 -8.221399586246586066e-02 3.431458431362290756e-02 1.876142205623719528e-01 -2.401387938639573671e-02 3.273325044562321873e-01 -6.963402033648877221e-02 -1.391108685726262506e-01 4.222441867862090081e-01 -1.718976417483748242e-01 1.074709744568988351e-01 4.106339149164764390e-01 2.897838142138335973e-02 5.475989691442936097e-02 1.229248750136354429e-01 1.896725917176475262e-01 2.326761211703394783e-01 -1.721242527223751928e-01 -7.740377012205508847e-03 8.125423797635364376e-02 -2.570782998846674050e-01 -1.303415320716278802e-01 1.432438150780067088e-01 -5.316967721108701861e-01 -1.729782790414783056e-01 6.827585497891858202e-02 -5.714616398261095354e-01
1.335258809767451704e-01 1.268496453592431183e-01 9.715639492394892440e-02 2.745994024313265780e-01 -2.656119468860662983e-02 3.329403129722687815e-01 -1.756659823059218695e-01 -5.427117918455256484e-01 4.718498628094686120e-01 -1.335660871835237518e-01 -1.886836917560253957e-01 2.807635059686363621e-01 -7.314535172874051493e-03 1.740239183751326416e-03 -9.721580531882727250e-02 1.173943079222584257e-01 2.359777581482293551e-01 1.283145111784817285e-02 3.636088614347233322e-02 -4.900095215001902815e-01 -6.595892682583517908e-02 -1.332071812291051871e-01 9.286966823756410971e-02 7.438485399892304228e-02 8.273919438682063310e-02 -9.462234192522418763e-02 -2.138712609066628911e-01 -7.643611394224590627e-02 3.574513962505194709e-01 -4.061555579934392757e-01 8.486103171122624800e-03 6.314209790807574774e-02 -2.568044089160776977e-01 1.502261932158160951e-02 -8.024734474805532425e-02 4.621970696148557101e-02 2.185231394857250764e-01 -3.512867821951777547e-02 3.208866129177905258e-01 -7.406192188472417171e-02 -1.620989064745913255e-01 4.319477601012449708e-01 -1.893207448203514109e-01 1.163277018038073179e-01 4.178928752535892022e-01 3.712976993822953570e-02 5.787379612050905231e-02 9.011132654631101579e-02 2.190148292548453335e-01 2.592810786012645918e-01 -1.441120403048814225e-01 -9.539179990874604650e-03 8.618677039970742970e-02 -2.429445000533451138e-01 -1.476082187212656716e-01 1.544527366428627702e-01 -5.540284715368565260e-01 -1.946720174962857652e-01 6.983971554288062600e-02 -5.966606426192491153e-01
1.511605995608033826e-01 1.347144136237281575e-01 9.566276665680080449e-02 3.063872337122364176e-01 -4.192716721148832121e-02 3.604198686598496515e-01 -1.984475020676270685e-01 -6.153988290833296571e-01 5.183102114583368891e-01 -1.458417844392221885e-01 -2.164731490775833322e-01 2.991140272973131786e-01 -1.595280744440907492e-02 8.831579256040080622e-03 -1.013341615620610425e-01 1.265278048137158384e-01 2.693091521578499514e-01 2.044432141310242174e-02 3.593564477347274688e-02 -5.434481727407206586e-01 -6.510026507232252735e-02 -1.545367298970057590e-01 1.100774662685715111e-01 8.821416676266566337e-02 9.154414606273091060e-02 -9.467496943392186837e-02 -2.327885684184928805e-01 -8.699078235656224067e-02 4.171349771689860098e-01 -4.541320328299059406e-01 9.106561717375477594e-03 8.570826894201057089e-02 -2.835062417613616326e-01 1.596579625715757386e-02 -7.811931864751014976e-02 5.840439124692343303e-02 2.498420733935037830e-01 -4.670435192946426062e-02 3.121641058982980166e-01 -7.842743018293647783e-02 -1.847798819587753993e-01 4.402143936949377556e-01 -2.063678351145604717e-01 1.245876798470970659e-01 4.233227298863679322e-01 4.500527608191857987e-02 6.059712594448021794e-02 5.648561709018579124e-02 2.490052177742180239e-01 2.860682632096520073e-01 -1.138959529809004251e-01 -1.153045690477590146e-02 9.141165148741908775e-02 -2.276635092804943639e-01 -1.648855001120437813e-01 1.654391044389485477e-01 -5.739899246495882013e-01 -2.156587115357498086e-01 7.068207316954246144e-02 -6.190681571541180039e-01
3.881500000000000228e-02 6.730200000000000071e-02 7.858700000000000407e-02 2.542600000000000068e-02 3.207299999999999734e-02 6.524399999999999644e-02 -1.771000000000000005e-03 6.953199999999999659e-02 6.736200000000000521e-02 1.706900000000000084e-02 4.192900000000000099e-02 4.724500000000000227e-02 7.474999999999999874e-03 -1.741640000000000132e-01 1.248979999999999951e-01 2.428200000000000150e-02 -1.863509999999999889e-01 8.671399999999999941e-02 1.139199999999999935e-02 -2.330329999999999901e-01 1.254089999999999927e-01 3.806099999999999761e-02 -1.995800000000000074e-01 6.456199999999999439e-02 3.147699999999999804e-02 -6.117000000000000041e-03 -6.210600000000000148e-02 3.554199999999999721e-02 -8.007999999999999494e-03 -7.071399999999999908e-02 1.054100000000000002e-02 2.290999999999999981e-02 -7.769600000000000117e-02 3.312500000000000167e-02 -1.347500000000000087e-02 -6.783500000000000640e-02 9.176999999999999394e-03 1.212809999999999999e-01 1.091960000000000014e-01 -1.675999999999999972e-03 1.604829999999999868e-01 1.147389999999999938e-01 -3.174400000000000138e-02 1.116199999999999970e-01 1.008050000000000057e-01 -4.144400000000000167e-02 2.017329999999999957e-01 9.855999999999999484e-02 -4.583299999999999874e-02 -6.517000000000000223e-03 -1.998800000000000021e-01 -5.198599999999999749e-02 2.364700000000000135e-02 -1.940580000000000083e-01 -6.225399999999999684e-02 -3.342099999999999932e-02 -2.259899999999999964e-01 -4.869400000000000117e-02 7.758000000000000139e-03 -1.880930000000000102e-01
3.928199999999999747e-02 4.256100000000000161e-02 9.092300000000000382e-02 3.051900000000000099e-02 5.196900000000000130e-02 8.693599999999999939e-02 -1.637900000000000120e-02 -2.010000000000000068e-04 9.493999999999999662e-02 -2.228300000000000072e-02 4.562999999999999695e-02 4.422399999999999942e-02 2.010100000000000081e-02 -2.162959999999999883e-01 1.112380000000000035e-01 1.956099999999999853e-02 -1.905399999999999872e-01 1.050289999999999974e-01 -3.287899999999999850e-02 -2.907210000000000072e-01 1.587149999999999950e-01 2.512999999999999956e-02 -1.600030000000000063e-01 7.925599999999999312e-02 1.206499999999999934e-02 -2.582200000000000120e-02 -4.806499999999999662e-02 1.922899999999999957e-02 9.797999999999999418e-03 -5.152899999999999842e-02 2.303600000000000092e-02 5.481999999999999894e-03 -9.270399999999999474e-02 5.160399999999999709e-02 1.740600000000000133e-02 -1.282629999999999881e-01 2.990999999999999909e-02 1.687809999999999866e-01 1.201409999999999978e-01 6.947000000000000050e-03 1.709140000000000104e-01 1.075799999999999951e-01 -1.654600000000000168e-02 9.371699999999999475e-02 9.812700000000000589e-02 -4.183499999999999719e-02 2.326139999999999874e-01 6.282699999999999396e-02 -4.699799999999999811e-02 2.407499999999999918e-02 -1.894480000000000053e-01 2.576000000000000165e-03 4.707000000000000246e-03 -1.815009999999999957e-01 -4.862099999999999755e-02 -1.750600000000000073e-02 -2.431169999999999998e-01 -5.798199999999999882e-02 3.071199999999999972e-02 -2.281499999999999917e-01
3.964000000000000162e-02 1.627299999999999927e-02 1.036370000000000069e-01 3.642200000000000298e-02 7.253999999999999337e-02 1.077520000000000006e-01 -3.187899999999999762e-02 -6.949700000000000322e-02 1.213150000000000062e-01 -6.435100000000000542e-02 4.922800000000000092e-02 4.025600000000000012e-02 3.346999999999999975e-02 -2.585270000000000068e-01 9.646899999999999920e-02 1.489399999999999925e-02 -1.934349999999999958e-01 1.233960000000000057e-01 -7.615299999999999847e-02 -3.493999999999999884e-01 1.937119999999999953e-01 1.172699999999999958e-02 -1.184619999999999979e-01 9.413799999999999946e-02 -8.123999999999999277e-03 -4.585999999999999799e-02 -3.356900000000000162e-02 2.064999999999999995e-03 2.802199999999999830e-02 -3.110699999999999923e-02 3.564200000000000007e-02 -1.271100000000000008e-02 -1.077240000000000003e-01 6.979399999999999493e-02 5.072800000000000226e-02 -1.905110000000000137e-01 4.976699999999999874e-02 2.162580000000000058e-01 1.301539999999999919e-01 1.592599999999999918e-02 1.808939999999999992e-01 1.000859999999999944e-01 -5.959999999999999586e-04 7.472099999999999576e-02 9.500500000000000611e-02 -4.218000000000000221e-02 2.648130000000000206e-01 2.532200000000000076e-02 -4.767400000000000110e-02 5.543700000000000017e-02 -1.778569999999999873e-01 5.887900000000000078e-02 -1.364600000000000014e-02 -1.666710000000000136e-01 -3.435499999999999665e-02 -1.268999999999999946e-03 -2.601459999999999884e-01 -6.752199999999999869e-02 5.291499999999999676e-02 -2.676290000000000058e-01
4.116399999999999920e-02 -9.934000000000000122e-03 1.168880000000000058e-01 4.280699999999999783e-02 9.216599999999999793e-02 1.268450000000000133e-01 -4.764000000000000179e-02 -1.344920000000000004e-01 1.454010000000000025e-01 -1.054540000000000061e-01 5.165999999999999759e-02 3.454800000000000232e-02 4.677599999999999814e-02 -2.995099999999999985e-01 8.214599999999999680e-02 1.157399999999999922e-02 -1.961650000000000060e-01 1.410329999999999917e-01 -1.170400000000000051e-01 -4.065480000000000205e-01 2.289049999999999974e-01 -1.340000000000000045e-03 -7.906900000000000039e-02 1.091369999999999979e-01 -2.811699999999999963e-02 -6.538099999999999468e-02 -1.910699999999999898e-02 -1.520900000000000030e-02 4.585899999999999699e-02 -1.053699999999999949e-02 4.803999999999999937e-02 -3.072199999999999931e-02 -1.219699999999999951e-01 8.694899999999999851e-02 8.498699999999999311e-02 -2.521410000000000040e-01 6.789699999999999902e-02 2.618989999999999929e-01 1.386590000000000045e-01 2.488299999999999887e-02 1.900610000000000077e-01 9.231000000000000316e-02 1.539199999999999943e-02 5.544799999999999729e-02 9.138999999999999901e-02 -4.246400000000000174e-02 2.971050000000000080e-01 -1.252900000000000021e-02 -4.780500000000000027e-02 8.628700000000000259e-02 -1.652980000000000005e-01 1.146070000000000005e-01 -3.071600000000000025e-02 -1.501840000000000119e-01 -2.019599999999999868e-02 1.459000000000000054e-02 -2.760009999999999963e-01 -7.676299999999999790e-02 7.317099999999999993e-02 -3.046289999999999831e-01
4.243199999999999750e-02 -3.588399999999999923e-02 1.300060000000000104e-01 4.937300000000000022e-02 1.109969999999999984e-01 1.441270000000000051e-01 -6.351999999999999313e-02 -1.972299999999999887e-01 1.667820000000000136e-01 -1.462930000000000064e-01 5.356699999999999656e-02 2.831499999999999989e-02 5.998799999999999966e-02 -3.391810000000000103e-01 6.796599999999999864e-02 8.109999999999999154e-03 -1.986729999999999885e-01 1.578489999999999893e-01 -1.547900000000000109e-01 -4.621449999999999725e-01 2.638679999999999914e-01 -1.413900000000000053e-02 -4.067699999999999788e-02 1.234009999999999968e-01 -4.765599999999999697e-02 -8.400900000000000034e-02 -4.845999999999999613e-03 -3.217699999999999727e-02 6.286700000000000621e-02 1.024199999999999937e-02 5.993400000000000116e-02 -4.831900000000000084e-02 -1.352649999999999963e-01 1.027539999999999981e-01 1.194950000000000040e-01 -3.117920000000000136e-01 8.421499999999999819e-02 3.046740000000000004e-01 1.458589999999999887e-01 3.364000000000000323e-02 1.984059999999999990e-01 8.498400000000000398e-02 3.123499999999999888e-02 3.628900000000000181e-02 8.775900000000000367e-02 -4.265100000000000141e-02 3.289730000000000154e-01 -4.937199999999999922e-02 -4.736200000000000132e-02 1.162460000000000021e-01 -1.525710000000000122e-01 1.689799999999999913e-01 -4.627900000000000069e-02 -1.325139999999999929e-01 -6.406000000000000236e-03 2.987599999999999978e-02 -2.907910000000000217e-01 -8.567700000000000315e-02 9.149999999999999800e-02 -3.389499999999999735e-01
4.394399999999999695e-02 -6.317399999999999405e-02 1.437849999999999961e-01 5.629800000000000082e-02 1.302740000000000009e-01 1.607069999999999887e-01 -8.061200000000000310e-02 -2.600270000000000081e-01 1.864389999999999936e-01 -1.894299999999999873e-01 5.408199999999999813e-02 1.999799999999999842e-02 7.381899999999999573e-02 -3.784730000000000039e-01 5.242999999999999744e-02 5.342999999999999659e-03 -2.003769999999999996e-01 1.738760000000000028e-01 -1.928110000000000102e-01 -5.179939999999999545e-01 3.000630000000000241e-01 -2.738300000000000109e-02 -1.139999999999999954e-03 1.377500000000000113e-01 -6.844100000000000183e-02 -1.025739999999999985e-01 1.066899999999999966e-02 -4.980199999999999905e-02 7.968699999999999395e-02 3.229499999999999732e-02 7.155100000000000349e-02 -6.661400000000000654e-02 -1.481740000000000002e-01 1.181220000000000048e-01 1.561970000000000025e-01 -3.722050000000000081e-01 1.000780000000000003e-01 3.465380000000000127e-01 1.518770000000000120e-01 4.285100000000000020e-02 2.056520000000000015e-01 7.679999999999999327e-02 4.814600000000000130e-02 1.620699999999999918e-02 8.291199999999999959e-02 -4.240800000000000125e-02 3.608399999999999941e-01 -8.760999999999999344e-02 -4.605599999999999972e-02 1.468379999999999963e-01 -1.378220000000000001e-01 2.250649999999999873e-01 -6.108899999999999747e-02 -1.119700000000000001e-01 7.804000000000000173e-03 4.544600000000000029e-02 -3.045280000000000209e-01 -9.492000000000000437e-02 1.088520000000000043e-01 -3.711800000000000099e-01
4.500099999999999933e-02 -9.150400000000000200e-02 1.576869999999999938e-01 6.370000000000000662e-02 1.499219999999999997e-01 1.761929999999999885e-01 -9.874800000000000244e-02 -3.241069999999999784e-01 2.040659999999999974e-01 -2.351040000000000074e-01 5.428499999999999992e-02 1.068999999999999985e-02 8.834100000000000286e-02 -4.180749999999999744e-01 3.600199999999999928e-02 2.003000000000000006e-03 -2.014779999999999904e-01 1.900340000000000085e-01 -2.295560000000000100e-01 -5.745329999999999604e-01 3.375810000000000199e-01 -4.120399999999999757e-02 4.007100000000000245e-02 1.522419999999999884e-01 -8.924500000000000488e-02 -1.212489999999999957e-01 2.612799999999999845e-02 -6.808799999999999575e-02 9.691299999999999915e-02 5.550000000000000072e-02 8.339299999999999491e-02 -8.527700000000000558e-02 -1.609589999999999910e-01 1.329510000000000136e-01 1.947369999999999934e-01 -4.338219999999999854e-01 1.148750000000000049e-01 3.878699999999999926e-01 1.573039999999999994e-01 5.215100000000000291e-02 2.124769999999999992e-01 6.890899999999999803e-02 6.536100000000000243e-02 -4.683999999999999796e-03 7.801900000000000501e-02 -4.222399999999999765e-02 3.936760000000000259e-01 -1.267560000000000076e-01 -4.401599999999999957e-02 1.778889999999999916e-01 -1.224610000000000004e-01 2.825570000000000026e-01 -7.519199999999999495e-02 -8.934400000000000674e-02 2.231800000000000103e-02 6.127099999999999907e-02 -3.181320000000000259e-01 -1.038990000000000052e-01 1.251649999999999985e-01 -4.030159999999999854e-01
4.603199999999999653e-02 -1.197949999999999987e-01 1.717470000000000108e-01 7.137899999999999801e-02 1.694050000000000000e-01 1.904760000000000064e-01 -1.173010000000000025e-01 -3.860239999999999783e-01 2.186410000000000020e-01 -2.819929999999999937e-01 5.329600000000000309e-02 -3.200000000000000262e-04 1.031439999999999996e-01 -4.566450000000000231e-01 1.890400000000000066e-02 -8.140000000000000534e-04 -2.019710000000000116e-01 2.052930000000000033e-01 -2.654130000000000100e-01 -6.299529999999999852e-01 3.755390000000000117e-01 -5.516999999999999682e-02 8.134600000000000164e-02 1.667099999999999971e-01 -1.109300000000000008e-01 -1.395530000000000104e-01 4.231100000000000139e-02 -8.672799999999999954e-02 1.136390000000000039e-01 7.972100000000000020e-02 9.483700000000000463e-02 -1.042679999999999996e-01 -1.731900000000000106e-01 1.470660000000000023e-01 2.347339999999999982e-01 -4.951240000000000085e-01 1.292929999999999913e-01 4.276960000000000206e-01 1.617879999999999874e-01 6.178399999999999864e-02 2.182139999999999913e-01 6.042299999999999754e-02 8.322000000000000230e-02 -2.594700000000000131e-02 7.200199999999999656e-02 -4.183499999999999719e-02 4.258129999999999971e-01 -1.663669999999999871e-01 -4.115300000000000208e-02 2.090980000000000061e-01 -1.054920000000000024e-01 3.408640000000000003e-01 -8.831200000000000161e-02 -6.410599999999999632e-02 3.706000000000000266e-02 7.712600000000000011e-02 -3.307370000000000032e-01 -1.131149999999999933e-01 1.402710000000000068e-01 -4.324729999999999963e-01
4.739100000000000257e-02 -1.476169999999999982e-01 1.857800000000000007e-01 7.882200000000000317e-02 1.879560000000000120e-01 2.031989999999999907e-01 -1.355740000000000001e-01 -4.419690000000000007e-01 2.310500000000000054e-01 -3.276640000000000108e-01 5.145099999999999674e-02 -1.234200000000000054e-02 1.176320000000000005e-01 -4.930260000000000198e-01 2.183000000000000045e-03 -3.445000000000000145e-03 -2.021930000000000116e-01 2.190370000000000095e-01 -2.984069999999999778e-01 -6.821070000000000189e-01 4.121619999999999728e-01 -6.871399999999999730e-02 1.211850000000000011e-01 1.804769999999999985e-01 -1.321269999999999945e-01 -1.569470000000000032e-01 5.848400000000000126e-02 -1.050470000000000015e-01 1.293680000000000108e-01 1.041419999999999985e-01 1.058290000000000064e-01 -1.227980000000000044e-01 -1.845390000000000086e-01 1.599470000000000058e-01 2.745360000000000023e-01 -5.545099999999999474e-01 1.424340000000000050e-01 4.645560000000000245e-01 1.651819999999999955e-01 7.122799999999999965e-02 2.230240000000000000e-01 5.254799999999999749e-02 1.008799999999999975e-01 -4.723900000000000321e-02 6.595700000000000174e-02 -4.129100000000000131e-02 4.566790000000000016e-01 -2.044430000000000136e-01 -3.747500000000000137e-02 2.394030000000000047e-01 -8.844499999999999584e-02 3.980739999999999834e-01 -1.000199999999999978e-01 -3.775400000000000283e-02 5.132400000000000156e-02 9.244700000000000140e-02 -3.421580000000000177e-01 -1.219400000000000067e-01 1.537419999999999898e-01 -4.593349999999999933e-01