-6.640822319999999479e+01
-6.801533892999999864e+01
-6.763670485000000099e+01
-6.741364563000000487e+01
-6.720248345000000256e+01
-6.798049500999999850e+01
-6.545609883000000195e+01
-6.560627988000000244e+01
-6.607088190999999711e+01
-6.655620507000000430e+01
-6.899229257000000359e+01
-6.503508866999999327e+01
-6.792315564000000450e+01
-6.736280913000000226e+01
-6.584651881000000628e+01
-6.665768355999999528e+01
-6.676868029000000604e+01
-6.616233726999999476e+01
-6.720681790999999805e+01
-6.680126128999999935e+01
-6.635621387999999854e+01
-6.885585512000000108e+01
-6.745999340000000188e+01
-6.676372505999999873e+01
-6.723627003000000002e+01
-6.547126154000000042e+01
-6.676285889999999767e+01
-6.981611698999999760e+01
-6.650982781000000443e+01
-6.615994584000000600e+01
-6.712995288999999843e+01
-6.467640532000000064e+01
-6.568447534999999959e+01
-6.885777088000000390e+01
-6.768204468000000418e+01
-6.543675192000000607e+01
-6.620176537999999766e+01
-6.891629921000000536e+01
-6.743556365999999969e+01
-6.734138305999999830e+01
-6.658335877999999752e+01
-6.963667357999999297e+01
-6.779390628999999535e+01
-6.607680387000000621e+01
-6.735720360000000539e+01
-6.587648443999999870e+01
-6.620998817000000258e+01
-6.628017325999999798e+01
-6.620532579999999712e+01
-6.686790272000000357e+01
-6.692663007000000164e+01
-6.857246747000000653e+01
-6.672037294999999801e+01
-6.599405455999999504e+01
-6.643046852000000513e+01
-6.891832302999999627e+01
-6.795124536999999521e+01
-6.523039507999999387e+01
-6.729680132000000015e+01
-6.634002744000000007e+01
-6.550354113999999583e+01
-6.869496986000000049e+01
-6.825967197999999314e+01
-6.608901658000000623e+01
-6.567808150999999839e+01
-6.692231282999999564e+01
-6.631512895999999557e+01
-6.936582384999999817e+01
-6.556858187999999643e+01
-6.663981513000000234e+01
-6.610437957999999981e+01
-6.595023858999999788e+01
-6.887512103000000252e+01
-6.810322463999999343e+01
-6.696613186000000439e+01
-6.519041651000000570e+01
-6.620728997999999876e+01
-6.772188952000000484e+01
-6.953739912999999717e+01
