4.139067000081660730e+00 2.105128673185450328e-22 3.052029115605665078e-22 -4.139150569071483154e+00 7.169025999666708060e+00 -4.842480583198989219e-21 -1.395625528624212114e-04 1.715512983152268347e-04 2.920610699937083865e+01
4.139066931081661238e+00 1.652044358932707710e-21 3.052029115605665078e-22 -4.139150485071537489e+00 7.169025889666794882e+00 1.933782994835413493e-21 -1.397725538700876819e-04 1.715342984729164547e-04 2.920610697037038506e+01
4.139066747081661113e+00 9.721775989836763266e-22 3.052029115605665078e-22 -4.139150258071797595e+00 7.169025615667043994e+00 -4.842480583198989219e-21 -1.401935562705021183e-04 1.715322988459686254e-04 2.920610667036937258e+01
4.139066449081661325e+00 3.869462265396314985e-21 3.052029115605665078e-22 -4.139149877072267891e+00 7.169025180667525809e+00 -4.842480583198989219e-21 -1.407625599287171938e-04 1.715132999640134358e-04 2.920610612736805223e+01
4.139066035081660822e+00 2.435803945026605327e-21 3.052029115605665078e-22 -4.139149331072987437e+00 7.169024587668290316e+00 -4.842480583198989219e-21 -1.414205647242063198e-04 1.714473022453738300e-04 2.920610534936665914e+01
4.139065498081660799e+00 -1.990392131839464171e-21 3.052029115605665078e-22 -4.139148605073979859e+00 7.169023828669386589e+00 -4.842480583198989219e-21 -1.421125706081530237e-04 1.713103061480192194e-04 2.920610432436538417e+01
4.139064831081660678e+00 1.449866064751383650e-21 3.052029115605665078e-22 -4.139147681075262319e+00 7.169022894670876944e+00 -1.161874416123339268e-20 -1.427865774935681276e-04 1.710763121217641575e-04 2.920610302936444214e+01
4.139064025081660603e+00 1.872959021904439903e-21 3.052029115605665078e-22 -4.139146540076862557e+00 7.169021774672819092e+00 -4.842480583198989219e-21 -1.433895853401218642e-04 1.707223206303872811e-04 2.920610143936402281e+01
4.139063077081661213e+00 2.029888816041689333e-21 1.999268806069167374e-21 -4.139145170078776026e+00 7.169020462675265826e+00 -4.842480583198989219e-21 -1.438715940694624922e-04 1.702293321005621512e-04 2.920609954636430317e+01
4.139061986081660649e+00 1.366145328243101438e-21 3.052029115605665078e-22 -4.139143562081006422e+00 7.169018957678264137e+00 -4.842480583198989219e-21 -1.441866035783233128e-04 1.695853468281793863e-04 2.920609732936542713e+01
4.051288899000000221e+00 0.000000000000000000e+00 0.000000000000000000e+00 -4.030971375000000023e+00 7.036635532000000026e+00 0.000000000000000000e+00 -2.892985229999999741e-01 -3.693324619999999725e-01 2.891576642000000064e+01
4.051288056999999831e+00 0.000000000000000000e+00 0.000000000000000000e+00 -4.030970617999999561e+00 7.036634306999999922e+00 0.000000000000000000e+00 -2.892992269999999921e-01 -3.693334790000000201e-01 2.891576121900000018e+01
4.051286346000000371e+00 0.000000000000000000e+00 0.000000000000000000e+00 -4.030969064999999851e+00 7.036631833000000391e+00 0.000000000000000000e+00 -2.893004650000000066e-01 -3.693354329999999908e-01 2.891575067400000165e+01
4.051283801000000295e+00 0.000000000000000000e+00 0.000000000000000000e+00 -4.030966745999999823e+00 7.036628170000000182e+00 0.000000000000000000e+00 -2.893021889999999874e-01 -3.693383029999999789e-01 2.891573498200000003e+01
4.051280446999999896e+00 0.000000000000000000e+00 0.000000000000000000e+00 -4.030963683000000408e+00 7.036623361000000187e+00 0.000000000000000000e+00 -2.893043619999999816e-01 -3.693420729999999930e-01 2.891571427399999905e+01
4.051276288000000392e+00 0.000000000000000000e+00 0.000000000000000000e+00 -4.030959882000000327e+00 7.036617420999999872e+00 0.000000000000000000e+00 -2.893069569999999757e-01 -3.693467449999999763e-01 2.891568855899999946e+01
4.051271320999999759e+00 0.000000000000000000e+00 0.000000000000000000e+00 -4.030955338000000054e+00 7.036610350000000125e+00 0.000000000000000000e+00 -2.893099670000000012e-01 -3.693523360000000033e-01 2.891565777900000000e+01
4.051265540000000165e+00 0.000000000000000000e+00 0.000000000000000000e+00 -4.030950050999999590e+00 7.036602146999999974e+00 0.000000000000000000e+00 -2.893133829999999795e-01 -3.693588589999999838e-01 2.891562187899999969e+01
4.051258961000000269e+00 0.000000000000000000e+00 0.000000000000000000e+00 -4.030944036000000175e+00 7.036592841000000043e+00 0.000000000000000000e+00 -2.893171929999999725e-01 -3.693663079999999765e-01 2.891558094000000168e+01
4.051251628000000160e+00 0.000000000000000000e+00 0.000000000000000000e+00 -4.030937337000000120e+00 7.036582500999999823e+00 0.000000000000000000e+00 -2.893213660000000242e-01 -3.693746370000000057e-01 2.891553521799999871e+01
4.111436757999999969e+00 0.000000000000000000e+00 0.000000000000000000e+00 -4.158608289000000013e+00 7.018304577000000322e+00 0.000000000000000000e+00 -8.541397370000000100e-01 4.672126400000000124e-01 2.858196474600000059e+01
4.111436171000000250e+00 0.000000000000000000e+00 0.000000000000000000e+00 -4.158608326000000410e+00 7.018303088999999773e+00 0.000000000000000000e+00 -8.541424990000000550e-01 4.672140160000000098e-01 2.858195727200000036e+01
4.111434948000000311e+00 0.000000000000000000e+00 0.000000000000000000e+00 -4.158608349999999731e+00 7.018300081999999662e+00 0.000000000000000000e+00 -8.541480390000000256e-01 4.672164080000000275e-01 2.858194225400000121e+01
4.111433094999999760e+00 0.000000000000000000e+00 0.000000000000000000e+00 -4.158608335000000267e+00 7.018295616999999709e+00 0.000000000000000000e+00 -8.541562529999999764e-01 4.672195670000000023e-01 2.858192000700000079e+01
4.111430612000000373e+00 0.000000000000000000e+00 0.000000000000000000e+00 -4.158608249000000257e+00 7.018289734999999752e+00 0.000000000000000000e+00 -8.541670550000000084e-01 4.672232510000000061e-01 2.858189077100000119e+01
4.111427484000000021e+00 0.000000000000000000e+00 0.000000000000000000e+00 -4.158608060999999800e+00 7.018282452000000227e+00 0.000000000000000000e+00 -8.541804130000000272e-01 4.672272390000000164e-01 2.858185463499999912e+01
4.111423686000000188e+00 0.000000000000000000e+00 0.000000000000000000e+00 -4.158607735000000361e+00 7.018273759999999584e+00 0.000000000000000000e+00 -8.541963299999999482e-01 4.672313120000000097e-01 2.858181158400000044e+01
4.111419193999999777e+00 0.000000000000000000e+00 0.000000000000000000e+00 -4.158607238000000095e+00 7.018263656000000239e+00 0.000000000000000000e+00 -8.542148019999999953e-01 4.672352510000000181e-01 2.858176163899999978e+01
4.111414003000000150e+00 0.000000000000000000e+00 0.000000000000000000e+00 -4.158606538999999991e+00 7.018252180000000173e+00 0.000000000000000000e+00 -8.542357579999999562e-01 4.672388219999999981e-01 2.858170503099999848e+01
4.111408134999999575e+00 0.000000000000000000e+00 0.000000000000000000e+00 -4.158605612999999757e+00 7.018239429000000307e+00 0.000000000000000000e+00 -8.542590150000000104e-01 4.672417859999999923e-01 2.858164225999999886e+01
4.061320002000000429e+00 0.000000000000000000e+00 0.000000000000000000e+00 -4.272369077999999654e+00 7.054132602000000141e+00 0.000000000000000000e+00 -9.662630299999999672e-02 8.469796189999999614e-01 3.000740162399999988e+01
4.061319763000000194e+00 0.000000000000000000e+00 0.000000000000000000e+00 -4.272369279000000297e+00 7.054131953999999816e+00 0.000000000000000000e+00 -9.662738399999999672e-02 8.469816660000000219e-01 3.000740502600000070e+01
4.061319250999999575e+00 0.000000000000000000e+00 0.000000000000000000e+00 -4.272369634000000360e+00 7.054130599999999696e+00 0.000000000000000000e+00 -9.662933499999999676e-02 8.469857659999999733e-01 3.000741153699999941e+01
4.061318482999999979e+00 0.000000000000000000e+00 0.000000000000000000e+00 -4.272370137000000234e+00 7.054128563999999990e+00 0.000000000000000000e+00 -9.663207999999999520e-02 8.469919070000000438e-01 3.000742104200000071e+01
4.061317468999999569e+00 0.000000000000000000e+00 0.000000000000000000e+00 -4.272370781000000228e+00 7.054125870000000020e+00 0.000000000000000000e+00 -9.663554600000000272e-02 8.470000730000000200e-01 3.000743340900000078e+01
4.061316214999999730e+00 0.000000000000000000e+00 0.000000000000000000e+00 -4.272371557999999681e+00 7.054122523000000200e+00 0.000000000000000000e+00 -9.663968000000000558e-02 8.470102720000000085e-01 3.000744853400000167e+01
4.061314722999999738e+00 0.000000000000000000e+00 0.000000000000000000e+00 -4.272372467000000285e+00 7.054118522999999641e+00 0.000000000000000000e+00 -9.664445100000000621e-02 8.470225479999999862e-01 3.000746636699999925e+01
4.061312990000000234e+00 0.000000000000000000e+00 0.000000000000000000e+00 -4.272373505000000016e+00 7.054113863999999623e+00 0.000000000000000000e+00 -9.664983800000000180e-02 8.470369450000000411e-01 3.000748685299999963e+01
4.061311021999999937e+00 0.000000000000000000e+00 0.000000000000000000e+00 -4.272374669999999597e+00 7.054108552999999837e+00 0.000000000000000000e+00 -9.665580199999999900e-02 8.470534690000000033e-01 3.000750988200000080e+01
4.061308828999999676e+00 0.000000000000000000e+00 0.000000000000000000e+00 -4.272375949999999811e+00 7.054102619000000018e+00 0.000000000000000000e+00 -9.666228400000000109e-02 8.470720400000000261e-01 3.000753522899999837e+01
4.098689880000000230e+00 0.000000000000000000e+00 0.000000000000000000e+00 -3.966397694999999946e+00 7.203386038999999741e+00 0.000000000000000000e+00 -4.832440639999999732e-01 -8.194673239999999970e-01 2.878242899700000024e+01
4.098689461000000200e+00 0.000000000000000000e+00 0.000000000000000000e+00 -3.966397129000000188e+00 7.203385864000000360e+00 0.000000000000000000e+00 -4.832446510000000250e-01 -8.194695210000000341e-01 2.878242510300000134e+01
4.098688604000000346e+00 0.000000000000000000e+00 0.000000000000000000e+00 -3.966395946000000006e+00 7.203385426999999730e+00 0.000000000000000000e+00 -4.832458199999999926e-01 -8.194738110000000519e-01 2.878241726099999909e+01
4.098687317999999635e+00 0.000000000000000000e+00 0.000000000000000000e+00 -3.966394152999999978e+00 7.203384747000000310e+00 0.000000000000000000e+00 -4.832475290000000090e-01 -8.194802380000000275e-01 2.878240575499999920e+01
4.098685608000000258e+00 0.000000000000000000e+00 0.000000000000000000e+00 -3.966391753999999992e+00 7.203383834000000263e+00 0.000000000000000000e+00 -4.832497319999999874e-01 -8.194888420000000506e-01 2.878239084399999825e+01
4.098683474000000437e+00 0.000000000000000000e+00 0.000000000000000000e+00 -3.966388740999999829e+00 7.203382695000000169e+00 0.000000000000000000e+00 -4.832523910000000034e-01 -8.194996949999999725e-01 2.878237271400000097e+01
4.098680901999999904e+00 0.000000000000000000e+00 0.000000000000000000e+00 -3.966385092999999973e+00 7.203381327999999861e+00 0.000000000000000000e+00 -4.832554700000000203e-01 -8.195129070000000127e-01 2.878235147099999836e+01
4.098677881999999606e+00 0.000000000000000000e+00 0.000000000000000000e+00 -3.966380791999999822e+00 7.203379735000000395e+00 0.000000000000000000e+00 -4.832589310000000027e-01 -8.195285909999999729e-01 2.878232723400000026e+01
4.098674410000000101e+00 0.000000000000000000e+00 0.000000000000000000e+00 -3.966375830000000047e+00 7.203377919000000240e+00 0.000000000000000000e+00 -4.832627190000000073e-01 -8.195468059999999610e-01 2.878230018500000043e+01
4.098670500999999966e+00 0.000000000000000000e+00 0.000000000000000000e+00 -3.966370224999999916e+00 7.203375890000000226e+00 0.000000000000000000e+00 -4.832667640000000153e-01 -8.195675150000000242e-01 2.878227062299999872e+01
