2.069529770315629236e+00 1.194836002980117717e+00 1.366551500039363765e+00 -5.101420199185810488e-05 4.779344002794762680e+00 1.366556000040722196e+00 -2.781930082255934964e-05 4.160449343927602174e-05 7.375479999864086089e+00 -2.069608603852267414e+00 3.584559604278791056e+00 7.375474499836152553e+00 -8.064450756496924374e-05 2.389742478340447729e+00 1.108772299975570874e+01 -2.069651429001025722e+00 5.974250478183784629e+00 1.108771749978122578e+01 2.069441807074156259e+00 1.194932030190652972e+00 1.707967149965882925e+01 -1.289775014488694156e-04 4.779450030063280508e+00 1.707967599965505556e+01 4.138939772874421053e+00 1.348961108239491835e-04 2.078919999944734087e+01 2.069368988322975778e+00 3.584652895954159479e+00 2.078919449944356757e+01 -1.086461006770675429e-04 2.389798552678852328e+00 2.681681299963718601e+01 -2.069689430676282083e+00 5.974316552493495358e+00 2.681681749960925387e+01 2.069503759434432766e+00 1.194853290579061422e+00 3.854471499943816770e+00 -6.702514117179708773e-05 4.779371290451688736e+00 3.854475999940042197e+00 -6.864288980932046168e-05 2.389727927194023938e+00 6.120172999791518187e+00 -2.069639427383270114e+00 5.974235927037360838e+00 6.120167499817036116e+00 -4.139282070276220082e+00 7.169191476673156593e+00 2.918072899940792553e+01 -2.069701285700614513e+00 3.584673476858512231e+00 2.918072449943586122e+01 -6.664356967272040591e-05 2.389729752052391021e+00 1.357082299984471341e+01 -2.069647428121117905e+00 5.974247751837742371e+00 1.357081749981677810e+01 -7.824011546409151776e-05 9.636295942917549396e-05 1.582771999964279885e+01 -2.069649024633084977e+00 3.584604362832057411e+00 1.582772449966831729e+01 2.069379658691442359e+00 1.194950385572029372e+00 9.690671499401647182e+00 -1.911258841628783527e-04 4.779468385444658018e+00 9.690675999397871720e+00 -4.139257799262971105e+00 7.169154174237412747e+00 2.327390899953325132e+01 -2.069677014745348931e+00 3.584646174422768450e+00 2.327390449953189488e+01 2.069431324042594333e+00 1.194966864462972955e+00 2.555771149959258182e+01 -1.394605088510554721e-04 4.779484864306309255e+00 2.555770599958880496e+01 -1.407259800308881942e-04 2.389806825248810274e+00 1.939948299948197885e+01 -2.069721510555635913e+00 5.974324825063455080e+00 1.939948749945404671e+01
2.066379751842758683e+00 1.196275996988863666e+00 1.370741488210873937e+00 1.579018399009565581e-03 4.771834025515863331e+00 1.371086025977206635e+00 1.560637446984197403e-03 7.164541614467773378e+00 7.375689017161059624e+00 2.064101402579078925e+00 3.582343581096951279e+00 7.378164493384824496e+00 -7.706454456382570142e-04 2.392762454245444648e+00 1.108086298924226121e+01 -2.065461467184651401e+00 5.980910501952093838e+00 1.108753749039499681e+01 2.071931756752784182e+00 1.202802050312320903e+00 1.708161148262141538e+01 9.210565292051773592e-04 4.776310016966014871e+00 1.707312601138950470e+01 -3.851774065512317009e-03 7.165660872437462636e+00 2.078843900090276975e+01 -2.069271013384398561e+00 3.584478901623797675e+00 2.079028450098460823e+01 -9.786424779657865777e-04 2.389998541835671730e+00 2.681483299694932398e+01 -2.060109435456983551e+00 5.974136615102929149e+00 2.681922752328127046e+01 2.062903799878191169e+00 1.189053244049577795e+00 3.851651500988023447e+00 3.962981173564496945e-03 4.776461326620336401e+00 3.858846018200326800e+00 5.413642514073642355e-04 2.389987920244678321e+00 6.116593000503569577e+00 -2.062849400160701396e+00 5.972665944439439656e+00 6.112667520820185274e+00 -4.128462060754416463e+00 7.167411540379756474e+00 2.918105903076244800e+01 -2.067621298705108135e+00 3.586703490414344664e+00 2.918123449851445983e+01 -2.386632021908008470e-03 2.389429726708037993e+00 1.356676299511831019e+01 -2.071397425884988319e+00 5.974557736799156693e+00 1.356914749468036341e+01 -4.134539770597545960e+00 7.163142385067125417e+00 1.582609902848778560e+01 2.059500963475040525e+00 3.582898331839822426e+00 1.583677448070612570e+01 2.066509646871903971e+00 1.193880390783415679e+00 9.698131495602037688e+00 -8.601096873479775404e-03 4.775948326252448695e+00 9.687115989390186144e+00 1.623747988613379132e-03 3.228189269281416841e-03 2.327549999463462882e+01 -2.067327044420033566e+00 3.586276212567713451e+00 2.328227450043445401e+01 2.064341249039138404e+00 1.209276825283722490e+00 2.555441144537763165e+01 -1.009455045325423567e-03 4.778304860932657050e+00 2.555827600094317376e+01 -1.034073350427673101e-02 2.395216737194230117e+00 1.938961295899160575e+01 -2.065441531962870059e+00 5.976074863531664505e+00 1.940414750466785776e+01
2.063219733214977758e+00 1.197725991057231543e+00 1.374971476328977760e+00 3.229051260080178024e-03 4.764254048528795416e+00 1.375676052166695529e+00 3.240663541982586812e-03 7.159961624766696175e+00 7.375879034634994724e+00 2.058691409042695764e+00 3.580103557637983602e+00 7.380864486875616137e+00 -1.470646486312849515e-03 2.395812430005425320e+00 1.107397297861659169e+01 -2.061231505708227996e+00 5.987620526011442124e+00 1.108737748095834696e+01 2.074441706231955784e+00 1.210702070580889744e+00 1.708356146554448785e+01 1.971090794714125231e-03 4.773150003723592327e+00 1.706652602318218115e+01 -7.521751861614944454e-03 7.162130849050926784e+00 2.078771900237546433e+01 -2.068851015189901776e+00 3.584318907371272900e+00 2.079141450246732248e+01 -1.868638809118823964e-03 2.390198530819987788e+00 2.681283299421295752e+01 -2.050449440404737533e+00 5.973976678236541105e+00 2.682165754708738703e+01 2.056243840659742528e+00 1.183203197114229610e+00 3.848811502033782084e+00 8.032987506599883684e-03 4.773531363138388883e+00 3.863256036615471789e+00 1.151371406324889959e-03 2.390257913207922691e+00 6.112983001186147014e+00 -2.056009372736560259e+00 5.971085961955819421e+00 6.105107541972833118e+00 -4.117572051061774374e+00 7.165601604493815557e+00 2.918138906237313535e+01 -2.065521311770123436e+00 3.588743504088044212e+00 2.918174449761167466e+01 -4.726620378797679808e-03 2.389129701131581296e+00 1.356266299034340506e+01 -2.073177423684554821e+00 5.974877721558028654e+00 1.356746748944157943e+01 -4.129819731766344759e+00 7.157132407603463697e+00 1.582444905749472142e+01 2.049530951426418834e+00 3.581188300658982193e+00 1.584586446162746753e+01 2.063609635046690816e+00 1.192790395968386319e+00 9.705641491788579600e+00 -1.708106769992494972e-02 4.772408266596501747e+00 9.683535979271601590e+00 3.363725947293914019e-03 6.358204077478835092e-03 2.327710998966986722e+01 -2.064957074391613912e+00 3.587936250976537345e+00 2.329069450129704677e+01 2.059221173468424038e+00 1.223696785844923918e+00 2.555108139076802587e+01 -1.849449618109522304e-03 4.777134857705617854e+00 2.555883600234036379e+01 -2.063074098672061998e-02 2.400656648355634637e+00 1.937965291819573110e+01 -2.061141553478674560e+00 5.977834902175580112e+00 1.940882750990010308e+01
2.060049714480608252e+00 1.199185985126637988e+00 1.379221464393669994e+00 4.899084357070183915e-03 4.756604071862856387e+00 1.380336078609176731e+00 4.960690021909552536e-03 7.155331635180974814e+00 7.376029052351467108e+00 2.053241415621218646e+00 3.577843533947990817e+00 7.383564480328205448e+00 -2.180647769707242788e-03 2.398912405649710866e+00 1.106706296782010668e+01 -2.056971544581408295e+00 5.994390550245293880e+00 1.108721747141780867e+01 2.076991655395709735e+00 1.218652091112374380e+00 1.708552144841777931e+01 2.981125377242417693e-03 4.769959990074829292e+00 1.705986603496571519e+01 -1.123172965057725459e-02 7.158590825492682441e+00 2.078701900378024447e+01 -2.068431017074674472e+00 3.584138913354405709e+00 2.079262450400819517e+01 -2.778635094116870333e-03 2.390398519631874219e+00 2.681081299142807950e+01 -2.040719445495360773e+00 5.973836741807139639e+00 2.682409757100343128e+01 2.049503881822583029e+00 1.177283149744930313e+00 3.845981503091352227e+00 1.215299397391181313e-02 4.770561400063843216e+00 3.867706055268210097e+00 1.751378690919146597e-03 2.390517906025789507e+00 6.109343001873667411e+00 -2.049089344946544156e+00 5.969475979701893920e+00 6.097467563406029356e+00 -4.106592041338395838e+00 7.163781669160687038e+00 2.918172909422972339e+01 -2.063401324813495474e+00 3.590783517850403950e+00 2.918224449675678756e+01 -7.096608485705053343e-03 2.388819675147904942e+00 1.355848298552512432e+01 -2.074977421461818405e+00 5.975197706172383327e+00 1.356577748415386431e+01 -4.125049692773046672e+00 7.151102430371735430e+00 1.582277908668020494e+01 2.039500939409994551e+00 3.579468269161109273e+00 1.585496444243299230e+01 2.060669623181984100e+00 1.191690401039689817e+00 9.713191487907817390e+00 -2.563103831516354986e-02 4.768848206418253355e+00 9.679915969042102830e+00 5.123703624165129589e-03 9.528219062075817675e-03 2.327873998463625327e+01 -2.062557104568264688e+00 3.589606289736588352e+00 2.329917450220240127e+01 2.054071097470588914e+00 1.238206746117350709e+00 2.554771133582234199e+01 -2.659444251341331385e-03 4.775974854654558399e+00 2.555939600378036403e+01 -3.102074854331646897e-02 2.406146558675088087e+00 1.936960287701159444e+01 -2.056821575151353443e+00 5.979604941053847433e+00 1.941354751515076060e+01
2.056869695794266928e+00 1.200645979079921100e+00 1.383451452434243167e+00 6.589117622319336925e-03 4.748904095459465680e+00 1.385046105246059200e+00 6.720716804594584377e-03 7.150661645739913475e+00 7.376149070281171838e+00 2.047741422280806578e+00 3.575573509939713457e+00 7.386254473689136013e+00 -2.900649286177221179e-03 2.402052381236903233e+00 1.106015295688209932e+01 -2.052671583712418091e+00 6.001200574740941818e+00 1.108706746185611181e+01 2.079581604485619017e+00 1.226602111965399367e+00 1.708751143138775319e+01 3.951160030327311411e-03 4.766769976107634754e+00 1.705317604665222575e+01 -1.495170748076239155e-02 7.155040801995304456e+00 2.078635900518957769e+01 -2.068031019130556647e+00 3.583958919427967516e+00 2.079390450550032199e+01 -3.728631415141342789e-03 2.390608508184702607e+00 2.680878298851707697e+01 -2.030919450878693855e+00 5.973746805785481229e+00 2.682653759494151302e+01 2.042683923236245924e+00 1.171303102029565446e+00 3.843191504131441949e+00 1.631300057548317611e-02 4.767551437338727993e+00 3.872196074134375277e+00 2.331386056857055484e-03 2.390767898698890281e+00 6.105693002541967118e+00 -2.042129316838995123e+00 5.967835997504314705e+00 6.089767585023125207e+00 -4.095542031492523272e+00 7.161931734293744967e+00 2.918208912634245067e+01 -2.061251337883590384e+00 3.592823531818041705e+00 2.918275449597394910e+01 -9.496596448955783518e-03 2.388509648815615449e+00 1.355424298063416622e+01 -2.076797419158826319e+00 5.975507690642236192e+00 1.356407747884649595e+01 -4.120239653757816534e+00 7.145072453343267682e+00 1.582109911596147356e+01 2.029450927416074357e+00 3.577748237519585928e+00 1.586405442319004244e+01 2.057699611243944293e+00 1.190590406026041048e+00 9.720771483954617764e+00 -3.425100877720184400e-02 4.765278145717717351e+00 9.676255958672387081e+00 6.903681173822160712e-03 1.272823410594630528e-02 2.328034997956308061e+01 -2.060137134887210841e+00 3.591296328643460267e+00 2.330766450309706173e+01 2.048901021195385308e+00 1.252776706188328593e+00 2.554431128065261447e+01 -3.409439061032420223e-03 4.774844851953472080e+00 2.555995600527705847e+01 -4.150075613060640739e-02 2.411666468298478527e+00 1.935949283552194089e+01 -2.052491596966450338e+00 5.981394980020636964e+00 1.941827752036637378e+01
2.053709677228415575e+00 1.202105973003183559e+00 1.387631440523176440e+00 8.299150963970148426e-03 4.741174119289341071e+00 1.389796132018732200e+00 8.520743904435839483e-03 7.145961656355681590e+00 7.376209088394776181e+00 2.042231429011730270e+00 3.573303485786564426e+00 7.388914467025741395e+00 -3.630651132431902614e-03 2.405232356884237532e+00 1.105328294580254855e+01 -2.048371622951569826e+00 6.008020599295791797e+00 1.108693745226445238e+01 2.082201553897823132e+00 1.234492133023520344e+00 1.708951141460599388e+01 4.851194623391738049e-03 4.763589961736031775e+00 1.704648605813991580e+01 -1.868168546829176643e-02 7.151500778558911087e+00 2.078573900654483353e+01 -2.067651021372166387e+00 3.583768925679939876e+00 2.079528450697295838e+01 -4.718627820645004620e-03 2.390828496537216630e+00 2.680676298547993497e+01 -2.021109456496920309e+00 5.973696869823806210e+00 2.682897761878592391e+01 2.035823964746080961e+00 1.165273054317279122e+00 3.840481505221399416e+00 2.051300727742793456e-02 4.764511474933773805e+00 3.876716093184647605e+00 2.881393571739197974e-03 2.390987891227861706e+00 6.102053003225457850e+00 -2.035159288534792221e+00 5.966166015335610417e+00 6.082057606751598122e+00 -4.084472021616154969e+00 7.160071799573910489e+00 2.918245915853188066e+01 -2.059081350874258032e+00 3.594853545874543421e+00 2.918325449526825821e+01 -1.192658422030751578e-02 2.388199622076205841e+00 1.354992297567052262e+01 -2.078637416964140616e+00 5.975827675055523258e+00 1.356239747346084634e+01 -4.115419615034864975e+00 7.139092476373454232e+00 1.581941914511952696e+01 2.019440915604010733e+00 3.576038205818798499e+00 1.587304440401426753e+01 2.054699599377480812e+00 1.189490410751764093e+00 9.728321479928981219e+00 -4.289097930839689404e-02 4.761728084843451114e+00 9.672575948195344608e+00 8.713658514023456605e-03 1.596824929650690963e-02 2.328194997444521519e+01 -2.057697165251944238e+00 3.593006367580105831e+00 2.331612450398099412e+01 2.043760945140386198e+00 1.267316666377242163e+00 2.554089122564327141e+01 -4.069434114982367623e-03 4.773764849717881731e+00 2.556049600684431056e+01 -5.201076358923874959e-02 2.417176377661696574e+00 1.934935279398887786e+01 -2.048181618841959928e+00 5.983195018872802251e+00 1.942300752550370646e+01
2.050589658937658655e+00 1.203555966895254681e+00 1.391721428738081690e+00 1.002918419835714843e-02 4.733454143293908345e+00 1.394566158809992684e+00 1.036077126335157098e-02 7.141241667028331186e+00 7.376209106662937387e+00 2.036731435755940289e+00 3.571043461604584301e+00 7.391544460357029500e+00 -4.370653313372342350e-03 2.408432332738254633e+00 1.104650293464001898e+01 -2.044091662018716171e+00 6.014810623735354689e+00 1.108680744271162588e+01 2.084851503897994451e+00 1.242272154316180321e+00 1.709153139821896872e+01 5.641228885730717804e-03 4.760449946845378477e+00 1.703983606924422745e+01 -2.239166380176746754e-02 7.147990755445485789e+00 2.078518900785985224e+01 -2.067301023717478259e+00 3.583558932023181320e+00 2.079675450843119933e+01 -5.758624334920388679e-03 2.391058484660920858e+00 2.680476298229247334e+01 -2.011329462533824053e+00 5.973726933631773761e+00 2.683139764232280555e+01 2.028934006139457402e+00 1.159213006783269773e+00 3.837891506326798652e+00 2.473301402170046542e-02 4.761451512733047231e+00 3.881266112341382080e+00 3.381401187198236971e-03 2.391177883555365202e+00 6.098443003875800628e+00 -2.028199260164481377e+00 5.964476033167716018e+00 6.074367628513783757e+00 -4.073442011781957639e+00 7.158201864741341680e+00 2.918286919065298690e+01 -2.056881363718007449e+00 3.596853560136675121e+00 2.918376449472243195e+01 -1.436657179017421584e-02 2.387879595104327013e+00 1.354554297071178226e+01 -2.080487414761908571e+00 5.976137659470310837e+00 1.356073746807960489e+01 -4.110599576826595936e+00 7.133192499462975178e+00 1.581775917404226384e+01 2.009550904118662107e+00 3.574338174346999519e+00 1.588187438509893390e+01 2.051689587645353807e+00 1.188400415186457559e+00 9.735791475849936205e+00 -5.151095004896132784e-02 4.758218024056746209e+00 9.668885937648999729e+00 1.052363583312054644e-02 1.922826437210170894e-02 2.328350996926876704e+01 -2.055267195401669689e+00 3.594716406196972969e+00 2.332449450484027409e+01 2.038660869721021118e+00 1.281746626800867039e+00 2.553747117105280040e+01 -4.619429461662562762e-03 4.772734848122529350e+00 2.556103600853041158e+01 -6.252077103045369788e-02 2.422666287143876218e+00 1.933925275251415243e+01 -2.043931640589574439e+00 5.984985057290658439e+00 1.942770753052465338e+01
2.047519641052435002e+00 1.204985960726277394e+00 1.395691417132411072e+00 1.176921729159261139e-02 4.725754167385904481e+00 1.399346185566354039e+00 1.224079875558349399e-02 7.136531677699340825e+00 7.376129124997722997e+00 2.031261442527848793e+00 3.568803437421947056e+00 7.394114453702010259e+00 -5.120655911231487833e-03 2.411662308828332435e+00 1.103982292336520388e+01 -2.039821700928490689e+00 6.021560648205556809e+00 1.108670743325102137e+01 2.087531454717961310e+00 1.249902175843542684e+00 1.709357138234384976e+01 6.311262710893827087e-03 4.757359931436408118e+00 1.703324607991167028e+01 -2.608164257319506990e-02 7.144530732625895553e+00 2.078469900907599666e+01 -2.066991026330936787e+00 3.583348938458429167e+00 2.079833450979227294e+01 -6.838621040282544250e-03 2.391308472643302263e+00 2.680279297894953672e+01 -2.001599468965461703e+00 5.973836997064318588e+00 2.683378766550377748e+01 2.022014047227894462e+00 1.153142959515464971e+00 3.835451507389056047e+00 2.897302085654112139e-02 4.758371550677996886e+00 3.885826131604543043e+00 3.821408912836988820e-03 2.391327875682047299e+00 6.094883004498110601e+00 -2.021269231684678314e+00 5.962746050972564937e+00 6.066727650319892362e+00 -4.062472001883869588e+00 7.156311929621666401e+00 2.918329922268667076e+01 -2.054671376415036832e+00 3.598823574488673849e+00 2.918428449428810723e+01 -1.682655919247973836e-02 2.387559567812806538e+00 1.354109296570447718e+01 -2.082347412552274957e+00 5.976437643886673534e+00 1.355909746270271299e+01 -4.105809539389273510e+00 7.127412522467245104e+00 1.581612920253995469e+01 1.999810892988891142e+00 3.572668143102534444e+00 1.589048436645791007e+01 2.048659576037834995e+00 1.187330419213654897e+00 9.743161471664031126e+00 -6.009092111497187083e-02 4.754767963473642389e+00 9.665185927023042467e+00 1.235361313098827692e-02 2.250827944888374524e-02 2.328502996408204595e+01 -2.052827225346221862e+00 3.596436444551605938e+00 2.333275450569388454e+01 2.033620795193227693e+00 1.296026587546102782e+00 2.553404111704669788e+01 -5.049425202739563599e-03 4.771784847137719332e+00 2.556154601027159856e+01 -7.300077830459235362e-02 2.428106196948404794e+00 1.932920271125810530e+01 -2.039741662161153268e+00 5.986765095215750954e+00 1.943235753542915845e+01
2.044489623538913392e+00 1.206405954408990899e+00 1.399531405652708393e+00 1.352925030164143713e-02 4.718064191623326131e+00 1.404136212341245749e+00 1.418082655504357761e-02 7.131801688484716628e+00 7.375969143535293426e+00 2.025811449361254013e+00 3.566573413210005317e+00 7.396634447065799201e+00 -5.890659032343363577e-03 2.414932285155127811e+00 1.103326291192463060e+01 -2.035571739574637995e+00 6.028260672589882851e+00 1.108661742388774130e+01 2.090261406357682983e+00 1.257382197721680361e+00 1.709563136702895036e+01 6.841295992530566257e-03 4.754329915451824817e+00 1.702673609006462030e+01 -2.974162180679936276e-02 7.141120710187530030e+00 2.078427901021738933e+01 -2.066721029120784259e+00 3.583118945015082879e+00 2.080003451111473112e+01 -7.988617936787640456e-03 2.391578460310552767e+00 2.680085297537863909e+01 -1.991909475956195719e+00 5.974047060238152795e+00 2.683616768829438826e+01 2.015064088112858531e+00 1.147032912601767984e+00 3.833191508496046840e+00 3.324302776742760202e-02 4.755261588914510895e+00 3.890426151027559065e+00 4.201416806619714082e-03 2.391427867607942126e+00 6.091373005121665685e+00 -2.014379203047094169e+00 5.960976068633613068e+00 6.059117672145731603e+00 -4.051551992028273652e+00 7.154411994331605129e+00 2.918376925462774807e+01 -2.052431388825287417e+00 3.600743589017369128e+00 2.918480449407216781e+01 -1.930654637893632758e-02 2.387239540143129890e+00 1.353655296064859037e+01 -2.084217410359449296e+00 5.976727628333971865e+00 1.355748745733013649e+01 -4.101029502640811231e+00 7.121742545473010111e+00 1.581451923069017340e+01 1.990230882272636892e+00 3.571018112143479861e+00 1.589887434814463596e+01 2.045629564579058979e+00 1.186280422920094502e+00 9.750421467419581489e+00 -6.866089240015781081e-02 4.751367902861649561e+00 9.661455916274260147e+00 1.420359045590358429e-02 2.580829446839747257e-02 2.328648995888506334e+01 -2.050377255037339363e+00 3.598166482585544834e+00 2.334088450654181202e+01 2.028660721556949653e+00 1.310156548729062731e+00 2.553060106367326298e+01 -5.329421410758749915e-03 4.770914847025426120e+00 2.556205601214033152e+01 -8.348078553733112583e-02 2.433526106842841763e+00 1.931918267006035350e+01 -2.035621683614741162e+00 5.988545132590195053e+00 1.943695754016373201e+01
2.041509606387423403e+00 1.207825947942800626e+00 1.403221394293837632e+00 1.530928330581174911e-02 4.710354216123347371e+00 1.408976239222533344e+00 1.620085476802449187e-02 7.127041699441869937e+00 7.375709162353240700e+00 2.020351456198161699e+00 3.564363388794831611e+00 7.399104440346615519e+00 -6.680662662222437882e-03 2.418252261630795985e+00 1.102679290028900105e+01 -2.031321778295417158e+00 6.034960697062919266e+00 1.108655741452361632e+01 2.093051358802646256e+00 1.264702220096514340e+00 1.709774135232772352e+01 7.191328827268437217e-03 4.751359898542577120e+00 1.702026609960640968e+01 -3.338160143495227938e-02 7.137740688131049005e+00 2.078394901131842332e+01 -2.066501032159518747e+00 3.582868951723097162e+00 2.080188451237440717e+01 -9.218615048614351576e-03 2.391868447634061923e+00 2.679895297155561096e+01 -1.982229483588195285e+00 5.974367123356607578e+00 2.683854771073780299e+01 2.008034128886157621e+00 1.140862865781560043e+00 3.831121509585553753e+00 3.756303482199953997e-02 4.752101627617157931e+00 3.895086170717321661e+00 4.491424868541028965e-03 2.391477859159114150e+00 6.087913005673980749e+00 -2.007489174087451200e+00 5.959146086324233593e+00 6.051517694146506976e+00 -4.040631982041246850e+00 7.152472059161169682e+00 2.918427928668488036e+01 -2.050151401171053767e+00 3.602643603839418063e+00 2.918534449401088082e+01 -2.183653325291292496e-02 2.386919511804213467e+00 1.353188295547163911e+01 -2.086117408159286146e+00 5.977007612666980663e+00 1.355589745191353046e+01 -4.096249466629543257e+00 7.116182568596886249e+00 1.581294925851705280e+01 1.980810872018205382e+00 3.569388081411300373e+00 1.590702433015909634e+01 2.042559553244859938e+00 1.185250426103165333e+00 9.757581463019944223e+00 -7.725086385620794083e-02 4.748017841988251497e+00 9.657675905330158628e+00 1.608356757591370909e-02 2.916830948870014276e-02 2.328788995358479497e+01 -2.047907284663493144e+00 3.599926520444722833e+00 2.334891450734960472e+01 2.023750648560898480e+00 1.324196510058701204e+00 2.552711101068426203e+01 -5.449418013261663613e-03 4.770124847755833564e+00 2.556253601416075938e+01 -9.399079262238055343e-02 2.438916016594699698e+00 1.930917262887770747e+01 -2.031581704974519287e+00 5.990325169385362969e+00 1.944151754470419391e+01
2.015449999999999964e+00 1.155540000000000012e+00 1.353010000000000046e+00 6.800000000000000488e-04 4.669769999999999754e+00 1.348840000000000039e+00 -7.420999999999999819e-02 -8.877999999999999781e-02 7.304249999999999687e+00 1.957950000000000079e+00 3.422449999999999992e+00 7.305049999999999599e+00 -1.033899999999999958e-01 2.204600000000000115e+00 1.097700999999999993e+01 -2.120690000000000186e+00 5.729140000000000121e+00 1.098013000000000083e+01 1.860100000000000087e+00 9.566599999999999548e-01 1.690994999999999848e+01 -1.536899999999999933e-01 4.473720000000000141e+00 1.690746000000000038e+01 -1.900699999999999890e-01 6.771659999999999791e+00 2.059031999999999840e+01 1.828160000000000007e+00 3.253909999999999858e+00 2.058445999999999998e+01 -2.609000000000000208e-01 2.005980000000000096e+00 2.654704999999999870e+01 -2.274690000000000101e+00 5.523920000000000385e+00 2.655073000000000150e+01 1.989670000000000050e+00 1.124060000000000059e+00 3.815620000000000012e+00 -2.847999999999999837e-02 4.639310000000000045e+00 3.815469999999999917e+00 -5.494999999999999885e-02 2.269359999999999822e+00 6.059079999999999799e+00 -2.074990000000000112e+00 5.784849999999999604e+00 6.054610000000000269e+00 -2.895099999999999896e-01 -3.677400000000000113e-01 2.889339999999999975e+01 1.739370000000000083e+00 3.147829999999999906e+00 2.889716999999999913e+01 -1.292800000000000060e-01 2.172550000000000203e+00 1.343482999999999983e+01 -2.137869999999999937e+00 5.689650000000000318e+00 1.343904000000000032e+01 -1.362099999999999977e-01 6.828579999999999650e+00 1.567526999999999937e+01 1.873550000000000049e+00 3.314579999999999860e+00 1.566934000000000005e+01 1.931699999999999973e+00 1.058030000000000026e+00 9.588499999999999801e+00 -7.933999999999999386e-02 4.568970000000000198e+00 9.598319999999999297e+00 -4.257399999999999629e+00 6.735960000000000392e+00 2.304382000000000019e+01 1.804640000000000022e+00 3.222059999999999924e+00 2.303963999999999857e+01 1.774809999999999999e+00 8.505800000000000027e-01 2.530376000000000047e+01 -2.372900000000000009e-01 4.364250000000000185e+00 2.530217999999999989e+01 -1.850300000000000000e-01 2.095000000000000195e+00 1.920085999999999871e+01 -2.200349999999999806e+00 5.612390000000000434e+00 1.920131999999999906e+01
2.017059999999999853e+00 1.160930000000000017e+00 1.352640000000000065e+00 -1.930000000000000075e-03 4.676219999999999821e+00 1.347150000000000070e+00 3.971140000000000114e+00 -9.331000000000000405e-02 7.309879999999999711e+00 1.961840000000000028e+00 3.420999999999999819e+00 7.304570000000000007e+00 -9.690999999999999615e-02 2.204590000000000050e+00 1.097924000000000078e+01 -2.121960000000000068e+00 5.737870000000000026e+00 1.098689000000000071e+01 1.857690000000000063e+00 9.554200000000000470e-01 1.690774000000000044e+01 -1.526800000000000102e-01 4.469949999999999868e+00 1.691018000000000043e+01 -1.867600000000000093e-01 6.769899999999999807e+00 2.058786999999999878e+01 1.829690000000000039e+00 3.251829999999999998e+00 2.058781000000000105e+01 -2.636600000000000055e-01 2.004779999999999784e+00 2.654258000000000095e+01 -2.282439999999999802e+00 5.525839999999999641e+00 2.655090999999999823e+01 1.999279999999999946e+00 1.121040000000000036e+00 3.822880000000000056e+00 -2.711999999999999827e-02 4.637970000000000148e+00 3.814610000000000056e+00 -5.097000000000000142e-02 2.263630000000000031e+00 6.052819999999999645e+00 -2.086110000000000131e+00 5.788030000000000008e+00 6.055320000000000036e+00 3.757699999999999818e+00 -3.619999999999999885e-01 2.889163999999999888e+01 1.728760000000000074e+00 3.147829999999999906e+00 2.890398000000000067e+01 -1.287200000000000011e-01 2.169929999999999914e+00 1.343160999999999916e+01 -2.133010000000000073e+00 5.690579999999999750e+00 1.344030000000000058e+01 -1.347599999999999909e-01 6.828039999999999665e+00 1.567843000000000053e+01 1.873680000000000012e+00 3.324170000000000069e+00 1.566383000000000081e+01 1.929280000000000106e+00 1.058340000000000058e+00 9.576100000000000279e+00 -8.430999999999999606e-02 4.559770000000000323e+00 9.605270000000000863e+00 -2.098899999999999932e-01 6.726689999999999614e+00 2.304670000000000130e+01 -2.240380000000000038e+00 3.221989999999999910e+00 2.303565000000000040e+01 1.774799999999999933e+00 8.521199999999999886e-01 2.530462999999999951e+01 -2.341000000000000025e-01 4.368599999999999817e+00 2.530386000000000024e+01 -1.764300000000000035e-01 2.095629999999999882e+00 1.919470000000000098e+01 -2.196229999999999905e+00 5.608430000000000248e+00 1.919644999999999868e+01
2.018689999999999873e+00 1.166390000000000038e+00 1.352330000000000032e+00 -4.570000000000000277e-03 4.682760000000000034e+00 1.345509999999999984e+00 -6.582000000000000350e-02 6.938780000000000392e+00 7.315620000000000012e+00 1.965780000000000083e+00 3.419570000000000221e+00 7.304140000000000299e+00 -9.035999999999999588e-02 2.204610000000000181e+00 1.098150000000000048e+01 -2.123219999999999885e+00 5.746710000000000207e+00 1.099371999999999971e+01 1.855269999999999975e+00 9.542000000000000481e-01 1.690558000000000050e+01 -1.516599999999999893e-01 4.466169999999999973e+00 1.691302999999999912e+01 -1.834000000000000075e-01 6.768159999999999954e+00 2.058541999999999916e+01 1.831260000000000110e+00 3.249769999999999825e+00 2.059118000000000137e+01 -2.664300000000000002e-01 2.003610000000000113e+00 2.653817000000000093e+01 -2.290220000000000145e+00 5.527809999999999668e+00 2.655116999999999905e+01 2.008970000000000145e+00 1.117990000000000039e+00 3.830220000000000180e+00 -2.576000000000000165e-02 4.636630000000000251e+00 3.813759999999999817e+00 -4.698000000000000093e-02 2.257820000000000160e+00 6.046409999999999840e+00 -2.097319999999999851e+00 5.791190000000000282e+00 6.055939999999999657e+00 3.753559999999999786e+00 -3.562500000000000111e-01 2.888972000000000051e+01 1.718069999999999986e+00 3.147800000000000153e+00 2.891066000000000003e+01 -1.281700000000000061e-01 2.167279999999999873e+00 1.342843000000000053e+01 -2.128109999999999946e+00 5.691530000000000200e+00 1.344164999999999921e+01 -1.333199999999999941e-01 6.827460000000000306e+00 1.568145999999999951e+01 -2.177470000000000017e+00 3.333779999999999966e+00 1.565813999999999950e+01 1.926830000000000043e+00 1.058599999999999985e+00 9.563499999999999446e+00 -8.934999999999999887e-02 4.550480000000000302e+00 9.612170000000000769e+00 -2.137100000000000111e-01 6.717329999999999579e+00 2.304967999999999861e+01 -2.234059999999999935e+00 3.221909999999999830e+00 2.303173999999999921e+01 1.774759999999999893e+00 8.536200000000000454e-01 2.530536999999999992e+01 -2.309299999999999964e-01 4.372939999999999827e+00 2.530542000000000158e+01 -1.678000000000000047e-01 2.096220000000000194e+00 1.918840000000000146e+01 -2.192099999999999937e+00 5.604409999999999670e+00 1.919144000000000005e+01