-1.001986736300000018e+02
-1.001940233499999948e+02
-1.001790761099999969e+02
-1.001536822000000058e+02
-1.001178943500000003e+02
-1.000720629000000059e+02
-1.000167975699999943e+02
-9.995280171000000280e+01
-9.988069174999999689e+01
-9.980082407999999816e+01
-9.986481555999999671e+01
-9.986506171000000620e+01
-9.985797103999999536e+01
-9.984352085000000443e+01
-9.982185948999999425e+01
-9.979342065000000161e+01
-9.975888107000000105e+01
-9.971907337000000382e+01
-9.967476396000000705e+01
-9.962658077000000389e+01
-9.975552530000000218e+01
-9.975279578999999330e+01
-9.974201530000000560e+01
-9.972282203999999695e+01
-9.969506939000000045e+01
-9.965891786999999624e+01
-9.961487013999999363e+01
-9.956357115999999507e+01
-9.950569102000000044e+01
-9.944173664000000201e+01
-9.989178434999999467e+01
-9.988333316000000650e+01
-9.986773101999999369e+01
-9.984504359999999679e+01
-9.981543458999999530e+01
-9.977928633000000502e+01
-9.973718309999999576e+01
-9.968981017000000122e+01
-9.963777837000000659e+01
-9.958154987000000347e+01
-1.000386519599999957e+02
-1.000324919100000045e+02
-1.000191142200000058e+02
-9.999837802000000408e+01
-9.997028115000000525e+01
-9.993507327999999745e+01
-9.989325691000000518e+01
-9.984543472000000008e+01
-9.979217325000000471e+01
-9.973384179999999333e+01
