6.541832512850308257e-03 3.705214952989374557e-03 6.043200495206127454e-02 6.541832534594339311e-03 3.705214926626214204e-03 6.042300495206133493e-02 -1.391287572437553167e-02 -8.091174467447396351e-03 -3.202000991279373848e-02 -1.391087572534197361e-02 -8.090174461709067136e-03 -3.202200991089100557e-02 7.946865669087029710e-03 4.776175370702810154e-03 4.413800520940856092e-02 7.947865718373480631e-03 4.775175323774925699e-03 4.412000521475393372e-02 -1.348189770566628892e-02 -7.873146850101563066e-03 -2.344500951014278842e-02 -1.348089767280866332e-02 -7.872146891171011990e-03 -2.346100951065593909e-02 7.574772349029730047e-03 4.313289612914073326e-03 8.387500566661978962e-02 7.574772331634505029e-03 4.316289612914010407e-03 8.387500565783202744e-02 -1.269691229109438414e-02 -7.373128129621993321e-03 -1.860800907825534145e-02 -1.269791227998074735e-02 -7.377128120774123499e-03 -1.860300906895434939e-02 -1.097929222675144475e-03 -6.480876237653537039e-04 -2.774000075439649396e-02 -1.097929276310420166e-03 -6.450875798268161437e-04 -2.772500076318436604e-02 1.688900455190042380e-02 9.802023500168148204e-03 -2.540898790877035851e-02 1.689000458379164363e-02 9.799023488391185588e-03 -2.541498789756656621e-02 -8.396904921402407670e-03 -4.769130438423772878e-03 -2.790800631722423555e-02 -8.396904916570401348e-03 -4.769130444282253245e-03 -2.791000631722422368e-02 -1.497007885322405515e-03 -8.429931933177110120e-04 5.286998852591377925e-03 -1.497007987277749639e-03 -8.399930907943723791e-04 5.321998843803363646e-03 1.586003285443431110e-02 9.232987218905535851e-03 -3.575798872800022704e-02 1.585703270367575662e-02 9.253987236660727450e-03 -3.574598879676260665e-02 -9.128976721143803111e-03 -5.458042786730278768e-03 3.463993932303593114e-03 -9.128976689735758543e-03 -5.463042789659412930e-03 3.462993946949870661e-03 -1.132050629261994188e-03 -6.629405182166262867e-04 2.254699920703627167e-02 -1.132050640858810577e-03 -6.609405182166686304e-04 2.254699920117776354e-02 1.519098150471096149e-02 8.813048550516637894e-03 -1.349598911416892248e-02 1.519098151775738134e-02 8.812048541728938894e-03 -1.349898911123964713e-02 -8.637932342553191617e-03 -4.922097513932927743e-03 -1.619100645138555825e-02 -8.635932308729183521e-03 -4.927097508194470954e-03 -1.619300643190730096e-02
4.034111626937030709e-02 -1.170482476734572772e-02 -2.003286824962607904e-02 7.520693043230436761e-03 3.496116999120848362e-02 4.314491576067021328e-02 8.066140952864750066e-03 3.118853946864284885e-03 -6.582698964852218282e-02 1.542910016574917768e-02 7.638914315536025380e-03 -5.979298509988589805e-02 3.684678539070984724e-03 9.912341433300532467e-03 1.092659798673557142e-01 -1.984789383268545371e-02 -3.422800317753705440e-02 3.820405230973489968e-02 -1.090399492656079702e-03 -9.474006835951896688e-02 -2.117772511815403311e-02 -6.476118782752840475e-02 2.159870037326085124e-02 2.590578026915399748e-02 2.526954703654355275e-02 3.701143551814538302e-02 9.865795263664292603e-02 -1.514227673115283064e-02 -3.379728519447829180e-03 1.226529733171276143e-01 -3.147600396645666709e-02 2.048208576997452460e-04 1.149923353904532160e-03 -6.109913467165906803e-02 3.907953426420904264e-02 -3.805026208933363213e-02 3.555907628386602379e-03 3.458108302965307457e-03 2.993399846167137460e-02 -1.851928841413743448e-03 -2.000082953179307434e-03 -2.465299861572100085e-02 -7.451970701945497856e-03 -6.229034940415057071e-03 2.823000242372347007e-03 -1.077401871704939187e-02 4.229572475082968535e-04 6.731972731038768712e-03 -4.954296581209047950e-02 -2.318312424228307321e-03 -8.587112905144678870e-03 -4.118830425468337185e-03 -2.015508778754968033e-02 -2.181595091217437485e-02 -2.577961689865575830e-03 -1.007054317280544134e-03 -1.344000327855733937e-02 -1.746022518084140978e-03 -3.328959418816805713e-03 1.731000553304977777e-02 -3.443290009255426179e-03 5.689193169067676553e-02 -1.650417496924735591e-02 7.346315587136223457e-02 1.851310683374665297e-02 -1.089478767428820466e-01 -7.020900920043051351e-03 6.878343249991797099e-04 -4.266101897766028800e-02 2.319985053928703272e-02 2.177416265812822174e-02 9.604992269237805358e-03 5.199892879136282665e-04 1.062008536771174520e-03 1.884998145431508558e-03 -5.067896055217027684e-03 -1.046148058651281748e-03 -4.051300917992757544e-02 4.101243597087966125e-02 -7.458876640606240671e-02 -1.437682425417652300e-03 5.841183395659421684e-02 3.527529202178220080e-02 -1.593396220672231925e-02 2.058910385343504929e-02 -2.866180503263887624e-02 2.580313370084073854e-02 -3.442786666588856792e-02 -8.299302941967512393e-03 -3.527005886744801616e-02
7.246539164869317262e-02 -2.555387501731521543e-02 -1.007767500706435032e-01 8.646562170697681682e-03 6.500112400710840455e-02 2.521783048639940350e-02 2.959315711840932936e-02 1.404088238540019892e-02 -9.873096963265627635e-02 4.414707645404489927e-02 2.318700027706869365e-02 -8.729396126142936752e-02 -1.111508733499105622e-03 1.526350306089591623e-02 1.739369526053776149e-01 -4.495766580590363631e-02 -7.250715613319737296e-02 3.569210377325526123e-02 1.125409616523683105e-02 -1.821129834862144081e-01 -1.663843935750605740e-02 -1.194684888199122608e-01 5.277152894109387454e-02 7.567355678376558314e-02 4.373732123356704332e-02 6.844459539340824739e-02 1.166799051797026698e-01 -3.671832878788498095e-02 -1.038274127782419509e-02 1.610069417030910166e-01 -5.122409930108454829e-02 8.086766525795758068e-03 2.169285255446823032e-02 -1.088553531508912736e-01 8.371520844751524637e-02 -5.474650821727187339e-02 8.146739909807916569e-03 7.390310628029831026e-03 8.991699803520561418e-02 -2.628930976175997049e-03 -3.466074564005418301e-03 -2.025099619868753545e-02 -3.164094770401226775e-02 -2.188609300933940655e-02 3.088098766520438673e-02 -3.821804025614692485e-02 -9.311107336919723781e-03 3.900893493983004223e-02 -8.937601700980093988e-02 -7.424923974217942368e-04 8.821786242226833941e-03 1.922435341215581351e-04 -3.542604510350901015e-02 -1.577789576425620011e-02 -3.781914868657508273e-03 -1.086117510693648770e-03 -3.263000595585590496e-02 -1.939032697187537341e-03 -6.010929341444249535e-03 2.796001292294769680e-02 -2.221761135911555843e-02 1.044268782660871947e-01 2.420640430776469561e-03 1.346072871553131434e-01 2.771623749883950563e-02 -1.853747559771691256e-01 -4.345827998339142281e-03 7.800711417285889106e-03 -8.991503335034178868e-02 5.356368633741531021e-02 4.823935174992950020e-02 1.405298810550846024e-02 2.161036169463475664e-03 2.522950940117866733e-03 -2.102600216940988045e-02 -8.855743915044631334e-03 -1.308352640674168704e-03 -1.028560175637711072e-01 6.809688179453539381e-02 -1.558325787319131128e-01 9.018620993432551261e-03 1.012106908829107782e-01 6.107753226111699990e-02 -1.863993438550938520e-02 4.921014162757386678e-02 -5.192452133194562502e-02 6.599927099174994483e-02 -6.155479740867255550e-02 -1.204151789761641160e-02 -5.495511344450724339e-02
1.033956570258269952e-01 -3.796793015187393400e-02 -1.808246389798137677e-01 9.844430553523854724e-03 9.469908174761214326e-02 8.419746387862282744e-03 5.081117208611156399e-02 2.502491004867118951e-02 -1.312879505449432715e-01 7.282305304530764523e-02 3.874408556447975216e-02 -1.149419375508024949e-01 -6.387694525085257577e-03 2.042966141024572108e-02 2.384389247256347433e-01 -6.840643968051376977e-02 -1.114462925124678067e-01 3.555116118302886069e-02 2.338260249712641181e-02 -2.722108936494516684e-01 -9.977146136460474102e-03 -1.787928084517223515e-01 8.641433597210708417e-02 1.272283149084570963e-01 6.388009277967320043e-02 9.944577123206087277e-02 1.368358630349550131e-01 -5.767738314226397017e-02 -1.678575189098402767e-02 1.988719098221636838e-01 -7.202420051480899754e-02 1.632971068405726645e-02 4.380277815592949209e-02 -1.570585676171676326e-01 1.267408864920206157e-01 -6.923975070911454754e-02 1.284356952393232373e-02 1.126751718830024465e-02 1.511359980259344704e-01 -3.575930152778271538e-03 -4.973070458887208188e-03 -1.697499407226389992e-02 -5.565992475391514510e-02 -3.742615085707688000e-02 5.867797515603131314e-02 -6.539406153964015533e-02 -1.919216964385758034e-02 7.153289822669808840e-02 -1.279240584333584951e-01 -8.067034461935650104e-05 2.437869117147561590e-02 4.533316228706625595e-03 -5.045300242713022382e-02 -9.801841258586949102e-03 -5.031871548230148171e-03 -9.501782378674797098e-04 -5.088700937408677238e-02 -2.018042383430506802e-03 -8.882897864874353400e-03 3.886202114482581460e-02 -4.048692783112837340e-02 1.514818252300466350e-01 2.047845845689116179e-02 1.997494244260656360e-01 3.728938148619127813e-02 -2.651676266361201462e-01 -1.079757292109089937e-03 1.596358724082019495e-02 -1.387720493708832492e-01 8.196352989962417401e-02 7.414052400529802522e-02 1.664098084889354540e-02 3.779084760584474571e-03 3.719892993334944931e-03 -4.401100176649534040e-02 -1.241359650973612207e-02 -1.503550619392070384e-03 -1.634000255882121500e-01 9.652932412953134367e-02 -2.354413905060164236e-01 1.699492287977124108e-02 1.434135531065437175e-01 8.631576658701771432e-02 -2.218490635211363415e-02 7.735718011590103638e-02 -7.465624497857450970e-02 1.046254055820818041e-01 -9.031872196692423971e-02 -1.638074564655278564e-02 -7.576717022777329502e-02
1.333479157440539964e-01 -4.903899232527429014e-02 -2.613395341857759901e-01 1.095229971088408118e-02 1.246080365437670506e-01 -9.205338546201591310e-03 7.146218173814042340e-02 3.643693786023302628e-02 -1.626719340808195635e-01 1.016670284121337364e-01 5.436317287470916054e-02 -1.422319136159001240e-01 -1.218987759870797903e-02 2.507581706998076448e-02 3.030638970982874603e-01 -9.038221465148098266e-02 -1.513434122864822928e-01 3.816322495777132312e-02 3.505911950596169585e-02 -3.651667992861473144e-01 -8.758456355755168997e-04 -2.426841501561323167e-01 1.228071239501955098e-01 1.813190539438068738e-01 8.591186186231970778e-02 1.303359617909798929e-01 1.582778257791341014e-01 -7.790243482892594828e-02 -2.258176574989986807e-02 2.341758779365235854e-01 -9.367030879535140353e-02 2.494765586854485323e-02 6.793770061496172408e-02 -2.060947797259436720e-01 1.682945671964581891e-01 -8.117599090169200227e-02 1.753539800877519650e-02 1.494572648776443247e-02 2.132999985874982907e-01 -4.561929717387915723e-03 -6.511065891536312565e-03 -1.346399194925804524e-02 -7.937990201932543233e-02 -5.268820866420933363e-02 8.589696255490664178e-02 -9.210908108990661924e-02 -2.922923028246756511e-02 1.037138630842930620e-01 -1.652030899141270492e-01 -2.898468653699089398e-04 3.791060171798235623e-02 8.867388543034171802e-03 -6.531896046213266083e-02 -4.054787241424367278e-03 -6.302830215196193048e-03 -7.152373732195078937e-04 -6.855901313305463873e-02 -2.000049512096434973e-03 -1.190386787924452988e-02 4.906303003752064684e-02 -5.808223837532757589e-02 1.977977741102565357e-01 3.785628027605944523e-02 2.684045689399641721e-01 4.689753681549664599e-02 -3.480424889101776387e-01 2.724310457423646890e-03 2.523346198624510164e-02 -1.890620673343024194e-01 1.084943814365757625e-01 9.943967998681206566e-02 1.737297084022225782e-02 5.388134855920462263e-03 4.612835307788785803e-03 -6.688900049483197108e-02 -1.570345712746224268e-02 -1.551738350199588067e-03 -2.209760333957926648e-01 1.260757583299331464e-01 -3.125652034279248759e-01 2.237422017841680932e-02 1.848474223095078750e-01 1.107419937005287430e-01 -2.666987779804243924e-02 1.049042201128045915e-01 -9.678897814429221480e-02 1.411895369682469314e-01 -1.205346403715644166e-01 -2.132498502235567750e-02 -9.767422874686003398e-02
1.621131620547594798e-01 -5.865105659505995966e-02 -3.402204365332722746e-01 1.217017513289038802e-02 1.530819944705532620e-01 -2.597941901106112089e-02 9.139718813293407074e-02 4.794696478037623749e-02 -1.929429196336119035e-01 1.300890041814696807e-01 6.973825896538914104e-02 -1.691028899858009193e-01 -1.843505667970141496e-02 2.954796654346706491e-02 3.664538689103477576e-01 -1.100519986780859050e-01 -1.908225106486281519e-01 4.352029307935292857e-02 4.638263443335641917e-02 -4.586487007479374545e-01 1.034945555334098113e-02 -3.101135052747241438e-01 1.612178934901971894e-01 2.361187785200640488e-01 1.092786302268165255e-01 1.605341658263269022e-01 1.816777937756733352e-01 -9.709848611216030656e-02 -2.775777849014798501e-02 2.678248467207971495e-01 -1.160954211792542129e-01 3.372660037920310189e-02 9.338462072029371508e-02 -2.535169854609209961e-01 2.076852647378237549e-01 -9.055922085898966689e-02 2.219222604901666812e-02 1.841393759967521748e-02 2.761519996796413245e-01 -5.645928915727186498e-03 -8.078062132628427774e-03 -1.003498997806925169e-02 -1.025918791363949201e-01 -6.763626591310369085e-02 1.123009502613190880e-01 -1.182180997100303055e-01 -3.922128885137460969e-02 1.354018292741511476e-01 -2.010181108988453869e-01 -1.460020867076394649e-03 4.940451861649096388e-02 1.317945930679876275e-02 -7.979791946538988823e-02 1.405265588985384279e-03 -7.617792313839320817e-03 -3.242936997394267411e-04 -8.518501745529855063e-02 -1.906054979522421198e-03 -1.505883852502371521e-02 5.889803950635622704e-02 -7.495254105458887262e-02 2.431877241684138047e-01 5.420110655925444720e-02 3.403027203795668254e-01 5.637670345905546054e-02 -4.334743429712490381e-01 6.999373925329080426e-03 3.564133665351423147e-02 -2.403110874932829211e-01 1.330512408849614248e-01 1.240498197740210057e-01 1.648395808065763329e-02 6.981186646340891734e-03 5.261777189663267330e-03 -8.988299854708503567e-02 -1.867732436789740214e-02 -1.586916310528477345e-03 -2.758420404780237978e-01 1.565531827190751457e-01 -3.869440183536903000e-01 2.522651168566311317e-02 2.252602978167665138e-01 1.343972126706596826e-01 -3.191384945222262848e-02 1.316492605997053866e-01 -1.182137215316809431e-01 1.758516643429372250e-01 -1.520705532251376557e-01 -2.684823471189219310e-02 -1.204892887590250927e-01
1.896243949949447394e-01 -6.686012178844583098e-02 -4.169343460201322404e-01 1.323505160966521009e-02 1.813769514896682589e-01 -4.276049932126662484e-02 1.104741905587399015e-01 5.954399092601367349e-02 -2.217799075141705101e-01 1.579969802779358223e-01 8.475234421699835707e-02 -1.952428665400530727e-01 -2.502922850357839485e-02 3.336310981336561982e-02 4.284168418037471726e-01 -1.278537873602744734e-01 -2.305265909529295443e-01 5.134436637309335028e-02 5.739214740161008299e-02 -5.525905984208857591e-01 2.348975733121460088e-02 -3.809298755277362725e-01 2.017916465338848442e-01 2.919914885772648683e-01 1.341363985438198403e-01 1.901063829655306181e-01 2.065997672081373859e-01 -1.153075349804060373e-01 -3.241779206300718363e-02 2.992358163781569380e-01 -1.389285382541095570e-01 4.273954656642637434e-02 1.202115391544118367e-01 -3.007851847655540478e-01 2.450969692883012696e-01 -9.785444464734883996e-02 2.671705752474507617e-02 2.164214546815238296e-02 3.381580011559016663e-01 -6.803925376729230874e-03 -9.815060926500963207e-03 -7.330987687683978953e-03 -1.251358578794382892e-01 -8.206432097300450645e-02 1.381299380583974334e-01 -1.436011172753492160e-01 -4.920234456689513702e-02 1.666267971857826047e-01 -2.354021218020972139e-01 -3.487192769586021281e-03 5.878244148262595087e-02 1.747152851759094933e-02 -9.390987928176831867e-02 6.627317296064061045e-03 -9.031757903106509347e-03 2.036526687022877373e-04 -1.006950224180431092e-01 -1.772058259018676482e-03 -1.832281082528177882e-02 6.808904939112882249e-02 -9.095883429032454448e-02 2.873156766586754118e-01 6.966593862651097868e-02 4.148058776920088286e-01 6.552388042119063061e-02 -5.205401897660848487e-01 1.169243215874073323e-02 4.719321204840984385e-02 -2.921391099934533830e-01 1.556781086796502622e-01 1.478659438329706088e-01 1.404594298407176728e-02 8.522240246853980336e-03 5.582718881314206912e-03 -1.128389957641732916e-01 -2.136419975118055217e-02 -1.561083162918461276e-03 -3.274840470455776531e-01 1.875775948539394056e-01 -4.582148370998014308e-01 2.569179541047804036e-02 2.644201793978274151e-01 1.571924230573336634e-01 -3.760782161445948291e-02 1.575503013519201356e-01 -1.388554756390978362e-01 2.085247873849990774e-01 -1.847294612949600401e-01 -3.296149256524374266e-02 -1.438683497561059899e-01
2.159906102491581936e-01 -7.350818315197213404e-02 -4.900742628458388261e-01 1.461693464049674054e-02 2.082099126785727505e-01 -5.874557458308309055e-02 1.287161909488435674e-01 7.095501600577615309e-02 -2.493278968672396623e-01 1.850079575495554296e-01 9.923542657572059777e-02 -2.205948437060047673e-01 -3.203639258280351759e-02 3.674924431458481688e-02 4.882038149559950746e-01 -1.436275832005271258e-01 -2.699186530127490324e-01 6.138244365255303425e-02 6.824865281482370150e-02 -6.460394912865058403e-01 3.857405729547297435e-02 -4.545822560865988016e-01 2.439993841407474273e-01 3.482081869961616838e-01 1.601601687528791396e-01 2.189706095490165372e-01 2.324377455315324581e-01 -1.324765806644128685e-01 -3.653280729770830987e-02 3.280207869517019481e-01 -1.622676580924413414e-01 5.179449287481407288e-02 1.480814562429590142e-01 -3.461953771591100848e-01 2.803246915866400291e-01 -1.027686575494527466e-01 3.115589407399436961e-02 2.465534819816401005e-02 3.985800030541890027e-01 -8.146921230340165021e-03 -1.151306180367210608e-02 -4.971985958493760002e-03 -1.468448369447808710e-01 -9.604637393596431039e-02 1.630219265663782613e-01 -1.681481348170179024e-01 -5.889039752352369372e-02 1.971387662588952039e-01 -2.684841224692520734e-01 -6.431363086572215379e-03 6.612437018047388759e-02 2.162859608409507112e-02 -1.075628411141356516e-01 1.142836733248817245e-02 -1.040272821419463423e-02 7.976045473624311394e-04 -1.144090274702465326e-01 -1.611059615861689743e-03 -2.169878451267431840e-02 7.675305966921881773e-02 -1.061291183594359616e-01 3.302406313395908621e-01 8.422377623733889873e-02 4.914140416905475872e-01 7.406506574300743273e-02 -6.089190297000454111e-01 1.679148471553391225e-02 5.987408874284099597e-02 -3.443271348198720938e-01 1.764029845886944947e-01 1.708780526775323105e-01 1.017892564740087435e-02 9.985293760419566844e-03 5.603662335171265448e-03 -1.350389922909361329e-01 -2.381608387163814192e-02 -1.584237714985559315e-03 -3.753920529018715535e-01 2.190759945746273141e-01 -5.263296602330586049e-01 2.372107103591932289e-02 3.021150676702153426e-01 1.790586233676745853e-01 -4.384179459482077934e-02 1.825383427526332814e-01 -1.587782408812562773e-01 2.392039061152136659e-01 -2.184183642505116429e-01 -3.961675878135981210e-02 -1.680634116540253298e-01
2.413618089698443547e-01 -7.878023991254375080e-02 -5.596731861060759705e-01 1.607882011768795028e-02 2.343938759277819084e-01 -7.418564775059002803e-02 1.461231883112320273e-01 8.232404021006209383e-02 -2.755218881146329069e-01 2.112079358518479666e-01 1.131995066310321207e-01 -2.451278213110306969e-01 -3.932354830421029568e-02 3.959437086226758745e-02 5.458297890164915955e-01 -1.576813839195605471e-01 -3.093046992262013517e-01 7.342552506997356010e-02 7.868815487690192234e-02 -7.394503827737064494e-01 5.495435614114603518e-02 -5.307686464251578640e-01 2.878141076136995768e-01 4.046158745854338545e-01 1.873779404717582364e-01 2.471148462869400264e-01 2.593787288486553155e-01 -1.486326241267200976e-01 -4.010182319082942343e-02 3.545757583732658258e-01 -1.858927806068087774e-01 6.087344060051901734e-02 1.770013725701694851e-01 -3.912445619660610552e-01 3.135844206150438795e-01 -1.060998638147680889e-01 3.529273715022342162e-02 2.735454347102971376e-02 4.570540051426492112e-01 -9.537914900842938207e-03 -1.339506431247625660e-02 -3.074983806283103534e-03 -1.677158168436475305e-01 -1.095334245092435543e-01 1.870709156489749891e-01 -1.917481518155993159e-01 -6.838544700440535307e-02 2.269627370545868883e-01 -3.002621136739091479e-01 -1.016953173322667631e-02 7.145530435456376450e-02 2.576366193480146213e-02 -1.208178037917193443e-01 1.598441614995277718e-02 -1.186670281898435410e-02 1.499560333322859807e-03 -1.266050330635106747e-01 -1.491059524552695859e-03 -2.515075965927559068e-02 8.500007007088639099e-02 -1.203253919631061264e-01 3.717485889410417910e-01 9.785062035198995034e-02 5.697222106018638987e-01 8.201025915592867477e-02 -6.979008637808831184e-01 2.221653070130725355e-02 7.377696670351641117e-02 -3.967281624382444916e-01 1.952728678292988129e-01 1.931661469668931597e-01 5.014905949850882901e-03 1.136834812928550452e-02 5.349606221472071391e-03 -1.569329882054329439e-01 -2.600197561645124431e-02 -1.575381705645836081e-03 -4.202210582092751334e-01 2.509303808775678601e-01 -5.912374875793917628e-01 1.960733812753360714e-02 3.384309615051627196e-01 2.000888148150952450e-01 -5.037176845795264535e-02 2.065873839842738147e-01 -1.779110169167840150e-01 2.680570202627978738e-01 -2.530232626503619020e-01 -4.688603151583894263e-02 -1.926704739664636956e-01
2.659499889463627920e-01 -8.266128826609600577e-02 -6.248521153325952149e-01 1.767070763678797382e-02 2.599048421862943381e-01 -8.885571863269486892e-02 1.627681832856600896e-01 9.359906355206400186e-02 -3.005018809276615022e-01 2.367389148388370224e-01 1.267075851828792787e-01 -2.688497991966020684e-01 -4.694969526916720898e-02 4.184848898250267263e-02 6.012497639891541956e-01 -1.700911884243543060e-01 -3.489107297703232802e-01 8.756361110376434387e-02 8.870165292059449536e-02 -8.327502726388081866e-01 7.273165363268803418e-02 -6.092930464705016425e-01 3.331578185490885469e-01 4.613715520470544340e-01 2.158247130983646789e-01 2.747120928960208874e-01 2.872567167373055175e-01 -1.638806644801712453e-01 -4.314284130028005204e-02 3.785767304418964918e-01 -2.097009053198256590e-01 7.000238957917140348e-02 2.067112883087215969e-01 -4.357367400842127592e-01 3.449351581837042380e-01 -1.076180631426074952e-01 3.918958919358539461e-02 2.978972833622319308e-02 5.124500074246188808e-01 -1.109990572914642398e-02 -1.540807033781927717e-02 -2.039981683465870010e-03 -1.878167974262429374e-01 -1.226854721439177842e-01 2.105989056105791180e-01 -2.145031702386883399e-01 -7.751649241756991549e-02 2.565027088255192322e-01 -3.311660954165359660e-01 -1.470870115309006951e-02 7.479224298652177583e-02 2.980772713855845898e-02 -1.337907681950006589e-01 2.013146392155456404e-02 -1.331168091922964314e-02 2.173520664290222622e-03 -1.372870385288666450e-01 -1.412057703384365492e-03 -2.864273685972079306e-02 9.262708049068103799e-02 -1.336596582387802878e-01 4.122335498476177307e-01 1.108994695457294621e-01 6.495513850092063945e-01 8.928345944923501976e-02 -7.875446922184151655e-01 2.797057040646501111e-02 8.887384579256782380e-02 -4.493951927593082818e-01 2.125707571248326155e-01 2.149312284767474490e-01 -1.400116013638991923e-03 1.267340249722538961e-02 4.821551582900708913e-03 -1.781689835057627125e-01 -2.803487543208942057e-02 -1.577514946507892158e-03 -4.616830631148394204e-01 2.831057537613435038e-01 -6.530743183838652044e-01 1.367759699916310141e-02 3.734698598579789808e-01 2.203789985827537268e-01 -5.699574323863319109e-02 2.299554246269390201e-01 -1.963568010164569999e-01 2.955051307527970517e-01 -2.886671556295642427e-01 -5.483931203847605684e-02 -2.178795367855448639e-01
5.850500000000000145e-02 7.362799999999999900e-02 1.536839999999999873e-01 3.634099999999999830e-02 1.132490000000000024e-01 1.977800000000000114e-01 9.665999999999999245e-03 3.858000000000000318e-02 2.004110000000000058e-01 5.350900000000000101e-02 1.189709999999999934e-01 2.248169999999999891e-01 6.013999999999999901e-02 1.027750000000000052e-01 1.272610000000000130e-01 7.508499999999999897e-02 8.635299999999999920e-02 1.095129999999999992e-01 3.500600000000000239e-02 7.101599999999999580e-02 2.542900000000000160e-01 -6.969000000000000368e-03 5.406500000000000195e-02 2.740980000000000083e-01 7.491100000000000536e-02 7.830499999999999960e-02 5.381199999999999872e-02 6.747300000000000519e-02 7.997799999999999354e-02 8.679099999999999315e-02 4.620699999999999807e-02 8.166199999999999848e-02 2.683510000000000062e-01 5.148799999999999905e-02 8.598300000000000387e-02 2.465440000000000131e-01 -6.536000000000000143e-03 -2.975999999999999913e-03 9.216900000000000093e-02 -8.661000000000000296e-03 1.369999999999999961e-04 5.964200000000000057e-02 -5.942000000000000060e-02 -8.372300000000000575e-02 -2.572099999999999942e-01 -9.216000000000000233e-03 -7.974900000000000044e-02 -2.040869999999999906e-01 -5.409100000000000019e-02 -9.366399999999999726e-02 -2.821659999999999724e-01 -2.294799999999999965e-02 -8.617600000000000260e-02 -3.155499999999999972e-01 -9.743999999999999190e-03 -7.867999999999999994e-03 1.177880000000000038e-01 -6.184000000000000261e-03 1.314000000000000064e-03 1.087999999999999939e-01 -3.946800000000000308e-02 -4.461500000000000188e-02 -2.830030000000000046e-01 7.352000000000000028e-03 -8.529000000000000470e-02 -2.689420000000000144e-01 -4.798999999999999794e-02 -1.101970000000000033e-01 -2.113379999999999981e-01 -6.807900000000000063e-02 -6.627800000000000358e-02 -2.314140000000000086e-01 -6.256000000000000276e-03 -2.115000000000000126e-03 1.995820000000000094e-01 -6.007000000000000187e-03 -4.170000000000000095e-03 1.878839999999999955e-01 -4.400400000000000145e-02 -1.096099999999999991e-01 -2.486279999999999879e-01 -5.816299999999999942e-02 -6.578900000000000026e-02 -2.394350000000000089e-01 -5.855799999999999894e-02 -8.177700000000000247e-02 -2.135690000000000088e-01 -6.358900000000000663e-02 -6.166599999999999859e-02 -2.085100000000000009e-01
3.448199999999999876e-02 5.524099999999999844e-02 2.293580000000000063e-01 1.099499999999999957e-02 1.160270000000000051e-01 2.161500000000000088e-01 -1.413099999999999946e-02 6.644100000000000006e-02 1.940939999999999888e-01 5.265999999999999848e-02 1.089910000000000045e-01 1.941819999999999935e-01 3.227200000000000207e-02 7.536500000000000143e-02 6.234300000000000258e-02 6.334700000000000053e-02 6.393600000000000672e-02 1.327000000000000055e-02 5.557900000000000340e-02 1.244819999999999954e-01 2.426359999999999906e-01 -1.231499999999999956e-02 6.981300000000000006e-02 2.779519999999999769e-01 7.857799999999999507e-02 8.129500000000000615e-02 8.750499999999999945e-02 8.531800000000000495e-02 7.715400000000000036e-02 7.619999999999999820e-04 6.506099999999999384e-02 1.087459999999999954e-01 2.869689999999999741e-01 1.125590000000000063e-01 9.099500000000000643e-02 2.633739999999999970e-01 -7.681999999999999593e-03 -5.351999999999999987e-03 1.959599999999999884e-02 -1.365399999999999947e-02 1.918000000000000000e-03 5.207300000000000123e-02 -6.485399999999999499e-02 -6.581599999999999950e-02 -2.152709999999999901e-01 2.946299999999999961e-02 -1.140589999999999937e-01 -1.948989999999999889e-01 -3.461299999999999794e-02 -1.017180000000000029e-01 -2.801960000000000006e-01 9.353000000000000203e-03 -6.138400000000000106e-02 -3.476909999999999723e-01 -1.360600000000000004e-02 -1.511499999999999996e-02 1.643020000000000036e-01 -9.060000000000000345e-03 2.533000000000000095e-03 1.576249999999999873e-01 -6.005100000000000021e-02 -5.515300000000000064e-02 -2.881340000000000012e-01 1.399099999999999996e-02 -1.499709999999999932e-01 -2.499079999999999913e-01 -2.285900000000000085e-02 -1.159929999999999989e-01 -1.557209999999999983e-01 -5.440699999999999703e-02 -5.864000000000000289e-03 -2.306979999999999864e-01 -5.722999999999999789e-03 2.439000000000000196e-03 1.449509999999999965e-01 -5.671999999999999958e-03 -6.760999999999999649e-03 2.530450000000000199e-01 -6.113099999999999784e-02 -1.210969999999999963e-01 -2.767549999999999732e-01 -1.202099999999999974e-01 -8.760400000000000131e-02 -2.456430000000000002e-01 -7.883099999999999830e-02 -8.157699999999999674e-02 -1.861099999999999977e-01 -6.454699999999999327e-02 -5.781700000000000034e-02 -1.882280000000000064e-01
1.078199999999999992e-02 3.581999999999999768e-02 3.039479999999999960e-01 -1.507000000000000006e-02 1.190169999999999978e-01 2.346860000000000057e-01 -3.782300000000000245e-02 9.402099999999999347e-02 1.868289999999999951e-01 5.147299999999999792e-02 9.896699999999999942e-02 1.627580000000000138e-01 7.084000000000000019e-03 4.821500000000000091e-02 3.589999999999999984e-04 5.214799999999999991e-02 4.196600000000000330e-02 -8.077399999999999858e-02 7.671200000000000241e-02 1.757180000000000131e-01 2.303739999999999954e-01 -1.768300000000000080e-02 8.469699999999999451e-02 2.796330000000000204e-01 8.136599999999999389e-02 8.357799999999999951e-02 1.175790000000000030e-01 1.011740000000000000e-01 7.449100000000000166e-02 -8.965499999999999858e-02 8.418699999999999795e-02 1.356999999999999873e-01 3.052139999999999853e-01 1.740659999999999985e-01 9.742699999999999971e-02 2.812979999999999925e-01 -9.232000000000000622e-03 -7.202000000000000068e-03 -5.186899999999999844e-02 -1.870899999999999994e-02 3.905000000000000051e-03 4.411700000000000343e-02 -7.030200000000000338e-02 -4.799900000000000000e-02 -1.727650000000000019e-01 6.826599999999999335e-02 -1.484250000000000014e-01 -1.856679999999999997e-01 -1.495499999999999954e-02 -1.099310000000000009e-01 -2.773320000000000229e-01 4.222299999999999665e-02 -3.593999999999999972e-02 -3.795319999999999805e-01 -1.758099999999999941e-02 -2.253600000000000048e-02 2.095289999999999930e-01 -1.187900000000000067e-02 3.359000000000000007e-03 2.053359999999999908e-01 -8.122899999999999565e-02 -6.562800000000000578e-02 -2.925809999999999800e-01 2.055200000000000082e-02 -2.120249999999999913e-01 -2.307289999999999897e-01 -1.019999999999999992e-04 -1.230760000000000048e-01 -1.004030000000000061e-01 -4.188399999999999762e-02 5.598600000000000104e-02 -2.316100000000000103e-01 -4.900999999999999975e-03 7.451000000000000158e-03 9.333099999999999730e-02 -4.935000000000000150e-03 -9.374999999999999653e-03 3.220089999999999897e-01 -7.870499999999999718e-02 -1.325989999999999946e-01 -3.054830000000000045e-01 -1.833299999999999930e-01 -1.107810000000000045e-01 -2.539879999999999916e-01 -9.761200000000000432e-02 -8.149299999999999600e-02 -1.587669999999999915e-01 -6.499299999999999522e-02 -5.387200000000000322e-02 -1.675399999999999945e-01