4.496049348006088686e-01 -4.864957982315479962e-02 1.936482568244769498e-01 -4.864957982315479962e-02 5.068500205122121738e-01 1.120852950154661853e-01 1.936482568244769498e-01 1.120852950154661715e-01 -6.225992152806303359e-01
4.640266608479330923e-01 -1.059482345372320805e-01 1.135664265233164161e-01 -1.059482345372320944e-01 4.506597876572035477e-01 1.618539027209091596e-01 1.135664265233164161e-01 1.618539027209091319e-01 -6.837336437604084605e-01
5.103621561645379501e-01 -1.667249674478921140e-01 3.189444193808495254e-02 -1.667249674478921140e-01 4.321601647440125871e-01 2.098319227876390414e-01 3.189444193808495254e-02 2.098319227876390414e-01 -7.544691915678164440e-01
6.126115977176680438e-01 -2.281562132019734068e-01 -5.284446334813241997e-02 -2.281562132019734346e-01 4.753892528894701486e-01 2.546888186991165814e-01 -5.284446334813242691e-02 2.546888186991166370e-01 -7.718924913975866442e-01
7.648141047120995406e-01 -2.910208776785819795e-01 -1.387246713311439950e-01 -2.910208776785819240e-01 5.760359514693066396e-01 2.969763659003025746e-01 -1.387246713311439950e-01 2.969763659003025746e-01 -7.254720244838493981e-01
9.573955204860676860e-01 -3.573635801367058829e-01 -2.257190755959397888e-01 -3.573635801367059384e-01 7.230331446503465154e-01 3.361103310512703057e-01 -2.257190755959397332e-01 3.361103310512703057e-01 -6.393054047444476362e-01
1.178142020196580653e+00 -4.283093957015595699e-01 -3.125997789078062694e-01 -4.283093957015596254e-01 9.043833567616733626e-01 3.721880641844528270e-01 -3.125997789078062139e-01 3.721880641844527715e-01 -5.295658972433961997e-01
1.372048351525821053e+00 -5.033011548370905919e-01 -3.992532115864440012e-01 -5.033011548370904809e-01 1.062971805107705947e+00 4.057937933734699354e-01 -3.992532115864439457e-01 4.057937933734699909e-01 -4.367190469656171969e-01
1.625459974743485914e+00 -5.829663140918253106e-01 -4.847164920538236110e-01 -5.829663140918253106e-01 1.289844446741235107e+00 4.361539582800376125e-01 -4.847164920538235555e-01 4.361539582800376125e-01 -2.896027191671394774e-01
1.860837315705901496e+00 -6.658443784775203156e-01 -5.679132100992101417e-01 -6.658443784775203156e-01 1.505016835687147614e+00 4.645613545541080192e-01 -5.679132100992101417e-01 4.645613545541080192e-01 -1.634251147627482637e-01
1.383266551171575642e+01 4.663346586849143605e-01 1.084368667664124652e+00 4.663346586849143605e-01 1.160966421004686211e+01 1.406952949980627032e+00 1.084368667664124652e+00 1.406952949980627032e+00 1.201665167505211684e+01
1.376581951264832249e+01 4.578915106930301904e-01 1.044839299664493293e+00 4.578915106930301904e-01 1.145119279504116605e+01 1.427964192754980433e+00 1.044839299664493293e+00 1.427964192754980433e+00 1.197605115783402319e+01
1.365911284077992249e+01 4.573250439350886043e-01 1.011689144364413817e+00 4.573250439350886043e-01 1.125276958889174317e+01 1.446324922664616430e+00 1.011689144364413817e+00 1.446324922664616430e+00 1.192264314573123229e+01
1.360336993426985330e+01 4.542115759566272559e-01 9.799585296428394710e-01 4.542115759566272559e-01 1.111980506069048857e+01 1.460301304066710770e+00 9.799585296428394710e-01 1.460301304066710770e+00 1.191804911924362642e+01
1.358019770207160981e+01 4.561296261051646095e-01 9.498636042812848013e-01 4.561296261051646095e-01 1.102818496002157289e+01 1.468324154635954004e+00 9.498636042812848013e-01 1.468324154635954004e+00 1.198138248414715612e+01
1.352043279928971486e+01 4.668709681237063203e-01 9.268528832376528026e-01 4.668709681237063203e-01 1.090022599061871666e+01 1.473737706781661050e+00 9.268528832376528026e-01 1.473737706781661050e+00 1.200276258791481965e+01
1.347417669062499002e+01 4.775708359048903007e-01 9.058894782809787660e-01 4.775708359048903007e-01 1.080012677628107909e+01 1.473192635019028529e+00 9.058894782809787660e-01 1.473192635019028529e+00 1.203946281413535679e+01
1.338422841400850061e+01 4.938731521528732515e-01 8.897207694441556791e-01 4.938731521528732515e-01 1.066151812022285306e+01 1.468947599409121230e+00 8.897207694441556791e-01 1.468947599409121230e+00 1.201472119342711409e+01
1.331886626089977455e+01 5.112246264075964719e-01 8.754295989675641154e-01 5.112246264075964719e-01 1.055853315893877742e+01 1.459551813398923592e+00 8.754295989675641154e-01 1.459551813398923592e+00 1.203302051458013011e+01
1.326249639580538187e+01 5.289152452050748243e-01 8.620333260040456969e-01 5.289152452050748243e-01 1.047606150477305498e+01 1.443688322958522230e+00 8.620333260040456969e-01 1.443688322958522230e+00 1.205885600349982667e+01
9.254660385006504342e+00 3.042986784185259364e+00 3.391769756408995917e+00 3.042986784185259364e+00 1.428702687520224934e+01 -1.973967694988024046e+00 3.391769756408995917e+00 -1.973967694988024046e+00 1.781850337147416852e+01
9.509379959883460742e+00 2.991848361368669273e+00 3.385554477795909456e+00 2.991848361368669273e+00 1.424047320803247274e+01 -1.722813654694314023e+00 3.385554477795909456e+00 -1.722813654694314023e+00 1.778327745956397621e+01
9.769410514142689905e+00 2.944800494046474704e+00 3.380412913869554004e+00 2.944800494046474704e+00 1.418243653323664333e+01 -1.463716207598942498e+00 3.380412913869554004e+00 -1.463716207598942498e+00 1.768155362560307964e+01
1.012777940801684196e+01 2.892752633268365514e+00 3.375727428300760113e+00 2.892752633268365514e+00 1.417561523027437964e+01 -1.182200814571166880e+00 3.375727428300760113e+00 -1.182200814571166880e+00 1.762732142729006668e+01
1.051577541217432277e+01 2.844249959844035391e+00 3.369459625411329373e+00 2.844249959844035391e+00 1.416829643423251994e+01 -8.864116358034148657e-01 3.369459625411329373e+00 -8.864116358034148657e-01 1.760511755806209422e+01
1.096229616850648902e+01 2.793558130435429998e+00 3.364703232370286123e+00 2.793558130435429998e+00 1.419191648575001530e+01 -5.762772437830907535e-01 3.364703232370286123e+00 -5.762772437830907535e-01 1.756904598734962875e+01
1.140980075981248199e+01 2.748625076307579462e+00 3.358138037873349635e+00 2.748625076307579462e+00 1.420034246376371634e+01 -2.609609916520697070e-01 3.358138037873349635e+00 -2.609609916520697070e-01 1.750252131471404127e+01
1.182867962516626292e+01 2.704668732632274253e+00 3.349388284512218483e+00 2.704668732632274253e+00 1.416223104804240052e+01 5.790471895038236394e-02 3.349388284512218483e+00 5.790471895038236394e-02 1.735600393931175134e+01
1.226934216686175283e+01 2.659758881419329146e+00 3.335931774189045740e+00 2.659758881419329146e+00 1.412301508166243202e+01 3.849417342329410907e-01 3.335931774189045740e+00 3.849417342329410907e-01 1.723607989153721221e+01
1.275820981047937330e+01 2.613936893013160567e+00 3.319323263716376538e+00 2.613936893013160567e+00 1.411552071479218817e+01 7.181521473248375642e-01 3.319323263716376538e+00 7.181521473248375642e-01 1.711373836905961454e+01
3.710928260551791258e+00 2.448506092614170182e+00 1.488968661838350860e+00 2.448506092614170182e+00 6.250630303293546852e+00 -2.749362583768191648e+00 1.488968661838350860e+00 -2.749362583768191648e+00 -9.331187216649588834e+00
3.608673405787989008e+00 2.422734400105559072e+00 1.419670203566461897e+00 2.422734400105559072e+00 6.276938244001339484e+00 -2.869758730383717538e+00 1.419670203566461897e+00 -2.869758730383717538e+00 -9.428408529741059141e+00
3.491614287802252026e+00 2.402301457636515813e+00 1.358237823811839995e+00 2.402301457636515813e+00 6.281278484944733620e+00 -2.979573459101351851e+00 1.358237823811839995e+00 -2.979573459101351851e+00 -9.476967428574591068e+00
3.402628483095527123e+00 2.376706545640951962e+00 1.291831348353357889e+00 2.376706545640951962e+00 6.291574306970679764e+00 -3.073344452019463269e+00 1.291831348353357889e+00 -3.073344452019463269e+00 -9.437232682970265074e+00
3.379909246611163987e+00 2.355328966139355718e+00 1.226111635724993931e+00 2.355328966139355718e+00 6.352189548702257937e+00 -3.154097974892665412e+00 1.226111635724993931e+00 -3.154097974892665412e+00 -9.308136576600995582e+00
3.333516236832483326e+00 2.334670263827454573e+00 1.165816631484723143e+00 2.334670263827454573e+00 6.381624147448841100e+00 -3.222515465190044281e+00 1.165816631484723143e+00 -3.222515465190044281e+00 -9.137868763594330090e+00
3.316387711772629920e+00 2.314440689988630062e+00 1.105618176588979429e+00 2.314440689988630062e+00 6.423410235959963188e+00 -3.276665256463832776e+00 1.105618176588979429e+00 -3.276665256463832776e+00 -8.896767575804142680e+00
3.289021188665433026e+00 2.293057352067949139e+00 1.044094362060156378e+00 2.293057352067949139e+00 6.435357100507745898e+00 -3.315710289406941680e+00 1.044094362060156378e+00 -3.315710289406941680e+00 -8.622006821533302556e+00
3.301253482929608740e+00 2.273707490188481284e+00 9.826080929322118518e-01 2.273707490188481284e+00 6.474464804290243514e+00 -3.341716372775462851e+00 9.826080929322118518e-01 -3.341716372775462851e+00 -8.295386064583162522e+00
3.308377383329408783e+00 2.252726318829390006e+00 9.195442997236259464e-01 2.252726318829390006e+00 6.489683868470907946e+00 -3.353288430446746737e+00 9.195442997236259464e-01 -3.353288430446746737e+00 -7.935642517004654728e+00
7.241764308624791369e+00 -6.917772985641138517e-01 7.736171301698724356e-01 -6.917772985641138517e-01 7.839226903001375035e-01 3.122457424852114194e+00 7.736171301698724356e-01 3.122457424852114194e+00 9.386233093816878537e+00
7.380715059888594887e+00 -7.322302757263720041e-01 7.526398408312952037e-01 -7.322302757263720041e-01 6.768200037276366210e-01 3.316140622149258643e+00 7.526398408312952037e-01 3.316140622149258643e+00 9.001233468431296458e+00
7.519260530562136502e+00 -7.736589396656117223e-01 7.207627643988571142e-01 -7.736589396656117223e-01 5.785641823371215908e-01 3.503606518342948117e+00 7.207627643988571142e-01 3.503606518342948117e+00 8.620973349343765690e+00
7.664736057871430752e+00 -8.220407994174255828e-01 6.808819032797148729e-01 -8.220407994174255828e-01 5.106839691787531388e-01 3.678967653415505357e+00 6.808819032797148729e-01 3.678967653415505357e+00 8.208728731782461097e+00
7.826916739534043543e+00 -8.683167003093463787e-01 6.323555406914674881e-01 -8.683167003093463787e-01 4.727762516826757855e-01 3.845464661672223006e+00 6.323555406914674881e-01 3.845464661672223006e+00 7.803266523504189145e+00
8.035912819428620679e+00 -9.166236791724143851e-01 5.755125885659134743e-01 -9.166236791724143851e-01 5.006530433290227178e-01 4.000493248832032833e+00 5.755125885659134743e-01 4.000493248832032833e+00 7.447824633458946408e+00
8.213751133238474722e+00 -9.617903770496022409e-01 5.121564520484828131e-01 -9.617903770496022409e-01 5.083429385646811571e-01 4.146997016894922616e+00 5.121564520484828131e-01 4.146997016894922616e+00 7.047606290239781579e+00
8.410484648584645839e+00 -1.007163540258398715e+00 4.427698645052747239e-01 -1.007163540258398715e+00 5.515476214666867882e-01 4.282376992949488148e+00 4.427698645052747239e-01 4.282376992949488148e+00 6.684345164952061324e+00
8.603518585854356360e+00 -1.049348649119824728e+00 3.687213158692971282e-01 -1.049348649119824728e+00 6.014243037208132359e-01 4.408272065914236038e+00 3.687213158692971282e-01 4.408272065914236038e+00 6.327862211928015235e+00
8.826065865894920037e+00 -1.093193456643733130e+00 2.889235966717645376e-01 -1.093193456643733130e+00 7.015389948999085634e-01 4.521165800501625753e+00 2.889235966717645376e-01 4.521165800501625753e+00 6.015120482032800808e+00
